Title="TOUGHREACT V3.60demo: Aqueous Total & Species Concentrations in      mol/L, Surface & Exchanged Species in      mol/L, Dry blocks in mol/L medium"
Variables= "X(m)"   "Y(m)"   "Z(m)"   "P(bar)"     "T(C)"   "SatGas"   "SatLiq"     "aH2O"       "pH"        "t_h2o"         "t_h+"        "t_na+"        "t_cl-"      "t_hco3-"       "t_ca+2"      "t_so4-2"       "t_mg+2"     "t_h4sio4"       "t_al+3"       "t_fe+2"        "t_hs-"
Zone T= "0.00000000E+00 sec" I=       1 J=       1 K=       1 F=Point
       0.0500       0.2500      -0.2500  1.01300E+00   25.000  0.00000E+00  1.00000E+00  0.99933  4.8825  5.5352E+01  9.9823E-08  2.9217E-02  1.0769E-03  2.2037E-08  5.8832E-03  6.9203E-03  2.5328E-08  9.9716E-11  9.9316E-05  9.6724E-09  9.9716E-11
Zone T= "1.00000000E+01 sec" I=       1 J=       1 K=       1 F=Point
       0.0500       0.2500      -0.2500  1.01300E+00   25.000  0.00000E+00  1.00000E+00  0.99933  8.1124  5.5352E+01 -4.0216E-04  2.9217E-02  1.0769E-03  2.6596E-04  6.2173E-03  6.9204E-03  2.9746E-08  1.8328E-07  9.9402E-05  9.6726E-09  9.9695E-11
Zone T= "2.00000000E+01 sec" I=       1 J=       1 K=       1 F=Point
       0.0500       0.2500      -0.2500  1.01300E+00   25.000  0.00000E+00  1.00000E+00  0.99933  8.4629  5.5352E+01 -4.0915E-04  2.9217E-02  1.0769E-03  1.3665E-04  6.1561E-03  6.9205E-03  3.4165E-08  3.6646E-07  9.9488E-05  9.6727E-09  9.9675E-11
Zone T= "3.00000000E+01 sec" I=       1 J=       1 K=       1 F=Point
       0.0500       0.2500      -0.2500  1.01300E+00   25.000  0.00000E+00  1.00000E+00  0.99934  9.3415  5.5352E+01 -4.3476E-04  2.9217E-02  1.0769E-03  2.5934E-05  6.1136E-03  6.9206E-03  3.8583E-08  5.4965E-07  9.9574E-05  9.6729E-09  9.9655E-11
Zone T= "4.00000000E+01 sec" I=       1 J=       1 K=       1 F=Point
       0.0500       0.2500      -0.2500  1.01300E+00   25.000  0.00000E+00  1.00000E+00  0.99934 10.0785  5.5351E+01 -5.5701E-04  2.9217E-02  1.0769E-03  1.1879E-05  6.1676E-03  6.9207E-03  4.3002E-08  7.3283E-07  9.9659E-05  9.6731E-09  9.9634E-11
Zone T= "5.00000000E+01 sec" I=       1 J=       1 K=       1 F=Point
       0.0500       0.2500      -0.2500  1.01300E+00   25.000  0.00000E+00  1.00000E+00  0.99934 10.3573  5.5351E+01 -6.9182E-04  2.9217E-02  1.0769E-03  1.0391E-05  6.2343E-03  6.9208E-03  4.7420E-08  9.1601E-07  9.9742E-05  9.6732E-09  9.9614E-11
Zone T= "6.00000000E+01 sec" I=       1 J=       1 K=       1 F=Point
       0.0500       0.2500      -0.2500  1.01300E+00   25.000  0.00000E+00  1.00000E+00  0.99934 10.5265  5.5351E+01 -8.2749E-04  2.9217E-02  1.0769E-03  9.8501E-06  6.3018E-03  6.9209E-03  5.1838E-08  1.0992E-06  9.9813E-05  9.6734E-09  9.9594E-11
Zone T= "7.00000000E+01 sec" I=       1 J=       1 K=       1 F=Point
       0.0500       0.2500      -0.2500  1.01300E+00   25.000  0.00000E+00  1.00000E+00  0.99934 10.6479  5.5351E+01 -9.6322E-04  2.9217E-02  1.0769E-03  9.5604E-06  6.3696E-03  6.9210E-03  5.6251E-08  1.2824E-06  9.9851E-05  9.6735E-09  9.9573E-11
Zone T= "8.00000000E+01 sec" I=       1 J=       1 K=       1 F=Point
       0.0500       0.2500      -0.2500  1.01300E+00   25.000  0.00000E+00  1.00000E+00  0.99934 10.7426  5.5351E+01 -1.0986E-03  2.9217E-02  1.0769E-03  9.3742E-06  6.4371E-03  6.9209E-03  6.0642E-08  1.4655E-06  9.9816E-05  9.6737E-09  9.9553E-11
Zone T= "9.00000000E+01 sec" I=       1 J=       1 K=       1 F=Point
       0.0500       0.2500      -0.2500  1.01300E+00   25.000  0.00000E+00  1.00000E+00  0.99935 10.8200  5.5351E+01 -1.2332E-03  2.9217E-02  1.0769E-03  9.2410E-06  6.5044E-03  6.9207E-03  6.4963E-08  1.6487E-06  9.9645E-05  9.6739E-09  9.9533E-11
Zone T= "1.00000000E+02 sec" I=       1 J=       1 K=       1 F=Point
       0.0500       0.2500      -0.2500  1.01300E+00   25.000  0.00000E+00  1.00000E+00  0.99935 10.8855  5.5351E+01 -1.3665E-03  2.9217E-02  1.0769E-03  9.1388E-06  6.5709E-03  6.9201E-03  6.9089E-08  1.8319E-06  9.9242E-05  9.6740E-09  9.9513E-11
Zone T= "1.10000000E+02 sec" I=       1 J=       1 K=       1 F=Point
       0.0500       0.2500      -0.2500  1.01300E+00   25.000  0.00000E+00  1.00000E+00  0.99935 10.9420  5.5350E+01 -1.4976E-03  2.9217E-02  1.0769E-03  9.0567E-06  6.6364E-03  6.9189E-03  7.2766E-08  2.0151E-06  9.8482E-05  9.6742E-09  9.9492E-11
Zone T= "1.20000000E+02 sec" I=       1 J=       1 K=       1 F=Point
       0.0500       0.2500      -0.2500  1.01300E+00   25.000  0.00000E+00  1.00000E+00  0.99935 10.9916  5.5350E+01 -1.6256E-03  2.9217E-02  1.0769E-03  8.9883E-06  6.7004E-03  6.9170E-03  7.5585E-08  2.1982E-06  9.7210E-05  9.6744E-09  9.9472E-11
Zone T= "1.30000000E+02 sec" I=       1 J=       1 K=       1 F=Point
       0.0500       0.2500      -0.2500  1.01300E+00   25.000  0.00000E+00  1.00000E+00  0.99935 11.0356  5.5350E+01 -1.7496E-03  2.9217E-02  1.0769E-03  8.9302E-06  6.7623E-03  6.9141E-03  7.7074E-08  2.3814E-06  9.5261E-05  9.6745E-09  9.9452E-11
Zone T= "1.40000000E+02 sec" I=       1 J=       1 K=       1 F=Point
       0.0500       0.2500      -0.2500  1.01300E+00   25.000  0.00000E+00  1.00000E+00  0.99935 11.0750  5.5350E+01 -1.8686E-03  2.9217E-02  1.0769E-03  8.8799E-06  6.8218E-03  6.9099E-03  7.6948E-08  2.5646E-06  9.2483E-05  9.6747E-09  9.9431E-11
Zone T= "1.50000000E+02 sec" I=       1 J=       1 K=       1 F=Point
       0.0500       0.2500      -0.2500  1.01300E+00   25.000  0.00000E+00  1.00000E+00  0.99935 11.1107  5.5350E+01 -1.9820E-03  2.9217E-02  1.0769E-03  8.8359E-06  6.8785E-03  6.9043E-03  7.5316E-08  2.7477E-06  8.8777E-05  9.6748E-09  9.9411E-11
Zone T= "1.60000000E+02 sec" I=       1 J=       1 K=       1 F=Point
       0.0500       0.2500      -0.2500  1.01300E+00   25.000  0.00000E+00  1.00000E+00  0.99936 11.1431  5.5350E+01 -2.0897E-03  2.9217E-02  1.0769E-03  8.7970E-06  6.9323E-03  6.8973E-03  7.2645E-08  2.9309E-06  8.4123E-05  9.6750E-09  9.9391E-11
Zone T= "1.70000000E+02 sec" I=       1 J=       1 K=       1 F=Point
       0.0500       0.2500      -0.2500  1.01300E+00   25.000  0.00000E+00  1.00000E+00  0.99936 11.1728  5.5350E+01 -2.1922E-03  2.9217E-02  1.0769E-03  8.7621E-06  6.9836E-03  6.8891E-03  6.9516E-08  3.1140E-06  7.8604E-05  9.6752E-09  9.9370E-11
Zone T= "1.80000000E+02 sec" I=       1 J=       1 K=       1 F=Point
       0.0500       0.2500      -0.2500  1.01300E+00   25.000  0.00000E+00  1.00000E+00  0.99936 11.2004  5.5350E+01 -2.2905E-03  2.9217E-02  1.0769E-03  8.7304E-06  7.0327E-03  6.8797E-03  6.6408E-08  3.2972E-06  7.2393E-05  9.6753E-09  9.9350E-11
Zone T= "1.90000000E+02 sec" I=       1 J=       1 K=       1 F=Point
       0.0500       0.2500      -0.2500  1.01300E+00   25.000  0.00000E+00  1.00000E+00  0.99936 11.2260  5.5349E+01 -2.3861E-03  2.9217E-02  1.0769E-03  8.7013E-06  7.0805E-03  6.8697E-03  6.3627E-08  3.4803E-06  6.5730E-05  9.6755E-09  9.9330E-11
Zone T= "2.00000000E+02 sec" I=       1 J=       1 K=       1 F=Point
       0.0500       0.2500      -0.2500  1.01300E+00   25.000  0.00000E+00  1.00000E+00  0.99936 11.2502  5.5349E+01 -2.4806E-03  2.9217E-02  1.0769E-03  8.6739E-06  7.1277E-03  6.8595E-03  6.1323E-08  3.6634E-06  5.8879E-05  9.6757E-09  9.9309E-11
Zone T= "2.10000000E+02 sec" I=       1 J=       1 K=       1 F=Point
       0.0500       0.2500      -0.2500  1.01300E+00   25.000  0.00000E+00  1.00000E+00  0.99936 11.2730  5.5349E+01 -2.5754E-03  2.9217E-02  1.0769E-03  8.6479E-06  7.1751E-03  6.8493E-03  5.9543E-08  3.8466E-06  5.2090E-05  9.6758E-09  9.9289E-11
Zone T= "2.20000000E+02 sec" I=       1 J=       1 K=       1 F=Point
       0.0500       0.2500      -0.2500  1.01300E+00   25.000  0.00000E+00  1.00000E+00  0.99936 11.2948  5.5349E+01 -2.6719E-03  2.9217E-02  1.0769E-03  8.6229E-06  7.2233E-03  6.8395E-03  5.8274E-08  4.0297E-06  4.5576E-05  9.6760E-09  9.9269E-11
Zone T= "2.30000000E+02 sec" I=       1 J=       1 K=       1 F=Point
       0.0500       0.2500      -0.2500  1.01300E+00   25.000  0.00000E+00  1.00000E+00  0.99937 11.3157  5.5349E+01 -2.7709E-03  2.9217E-02  1.0769E-03  8.5984E-06  7.2728E-03  6.8304E-03  5.7480E-08  4.2128E-06  3.9495E-05  9.6761E-09  9.9248E-11
Zone T= "2.40000000E+02 sec" I=       1 J=       1 K=       1 F=Point
       0.0500       0.2500      -0.2500  1.01300E+00   25.000  0.00000E+00  1.00000E+00  0.99937 11.3358  5.5349E+01 -2.8731E-03  2.9217E-02  1.0769E-03  8.5744E-06  7.3239E-03  6.8220E-03  5.7112E-08  4.3959E-06  3.3948E-05  9.6763E-09  9.9228E-11
Zone T= "2.50000000E+02 sec" I=       1 J=       1 K=       1 F=Point
       0.0500       0.2500      -0.2500  1.01300E+00   25.000  0.00000E+00  1.00000E+00  0.99937 11.3551  5.5349E+01 -2.9787E-03  2.9217E-02  1.0769E-03  8.5508E-06  7.3767E-03  6.8146E-03  5.7125E-08  4.5790E-06  2.8986E-05  9.6765E-09  9.9208E-11
Zone T= "2.60000000E+02 sec" I=       1 J=       1 K=       1 F=Point
       0.0500       0.2500      -0.2500  1.01300E+00   25.000  0.00000E+00  1.00000E+00  0.99937 11.3737  5.5349E+01 -3.0879E-03  2.9217E-02  1.0769E-03  8.5274E-06  7.4313E-03  6.8080E-03  5.7472E-08  4.7620E-06  2.4619E-05  9.6766E-09  9.9187E-11
Zone T= "2.70000000E+02 sec" I=       1 J=       1 K=       1 F=Point
       0.0500       0.2500      -0.2500  1.01300E+00   25.000  0.00000E+00  1.00000E+00  0.99937 11.3917  5.5349E+01 -3.2006E-03  2.9217E-02  1.0769E-03  8.5043E-06  7.4876E-03  6.8023E-03  5.8117E-08  4.9451E-06  2.0827E-05  9.6768E-09  9.9167E-11
Zone T= "2.80000000E+02 sec" I=       1 J=       1 K=       1 F=Point
       0.0500       0.2500      -0.2500  1.01300E+00   25.000  0.00000E+00  1.00000E+00  0.99937 11.4091  5.5348E+01 -3.3164E-03  2.9217E-02  1.0769E-03  8.4814E-06  7.5455E-03  6.7975E-03  5.9025E-08  5.1281E-06  1.7570E-05  9.6770E-09  9.9147E-11
Zone T= "2.90000000E+02 sec" I=       1 J=       1 K=       1 F=Point
       0.0500       0.2500      -0.2500  1.01300E+00   25.000  0.00000E+00  1.00000E+00  0.99937 11.4259  5.5348E+01 -3.4351E-03  2.9217E-02  1.0769E-03  8.4589E-06  7.6048E-03  6.7933E-03  6.0167E-08  5.3112E-06  1.4797E-05  9.6771E-09  9.9126E-11
Zone T= "3.00000000E+02 sec" I=       1 J=       1 K=       1 F=Point
       0.0500       0.2500      -0.2500  1.01300E+00   25.000  0.00000E+00  1.00000E+00  0.99937 11.4422  5.5348E+01 -3.5563E-03  2.9217E-02  1.0769E-03  8.4366E-06  7.6654E-03  6.7898E-03  6.1519E-08  5.4942E-06  1.2452E-05  9.6773E-09  9.9106E-11
Zone T= "3.10000000E+02 sec" I=       1 J=       1 K=       1 F=Point
       0.0500       0.2500      -0.2500  1.01300E+00   25.000  0.00000E+00  1.00000E+00  0.99938 11.4580  5.5348E+01 -3.6797E-03  2.9217E-02  1.0769E-03  8.4146E-06  7.7271E-03  6.7868E-03  6.3057E-08  5.6771E-06  1.0480E-05  9.6774E-09  9.9086E-11
Zone T= "3.20000000E+02 sec" I=       1 J=       1 K=       1 F=Point
       0.0500       0.2500      -0.2500  1.01300E+00   25.000  0.00000E+00  1.00000E+00  0.99938 11.4732  5.5348E+01 -3.8050E-03  2.9217E-02  1.0769E-03  8.3930E-06  7.7897E-03  6.7843E-03  6.4764E-08  5.8601E-06  8.8281E-06  9.6776E-09  9.9065E-11
Zone T= "3.30000000E+02 sec" I=       1 J=       1 K=       1 F=Point
       0.0500       0.2500      -0.2500  1.01300E+00   25.000  0.00000E+00  1.00000E+00  0.99938 11.4880  5.5348E+01 -3.9318E-03  2.9217E-02  1.0769E-03  8.3718E-06  7.8531E-03  6.7822E-03  6.6621E-08  6.0430E-06  7.4480E-06  9.6778E-09  9.9045E-11
Zone T= "3.40000000E+02 sec" I=       1 J=       1 K=       1 F=Point
       0.0500       0.2500      -0.2500  1.01300E+00   25.000  0.00000E+00  1.00000E+00  0.99938 11.5023  5.5348E+01 -4.0600E-03  2.9217E-02  1.0769E-03  8.3509E-06  7.9172E-03  6.7805E-03  6.8614E-08  6.2259E-06  6.2971E-06  9.6779E-09  9.9025E-11
Zone T= "3.50000000E+02 sec" I=       1 J=       1 K=       1 F=Point
       0.0500       0.2500      -0.2500  1.01300E+00   25.000  0.00000E+00  1.00000E+00  0.99938 11.5162  5.5348E+01 -4.1893E-03  2.9217E-02  1.0769E-03  8.3304E-06  7.9818E-03  6.7791E-03  7.0728E-08  6.4088E-06  5.3382E-06  9.6781E-09  9.9004E-11
Zone T= "3.60000000E+02 sec" I=       1 J=       1 K=       1 F=Point
       0.0500       0.2500      -0.2500  1.01300E+00   25.000  0.00000E+00  1.00000E+00  0.99938 11.5296  5.5347E+01 -4.3195E-03  2.9217E-02  1.0769E-03  8.3103E-06  8.0469E-03  6.7779E-03  7.2951E-08  6.5916E-06  4.5393E-06  9.6783E-09  9.8984E-11
Zone T= "3.70000000E+02 sec" I=       1 J=       1 K=       1 F=Point
       0.0500       0.2500      -0.2500  1.01300E+00   25.000  0.00000E+00  1.00000E+00  0.99939 11.5427  5.5347E+01 -4.4505E-03  2.9217E-02  1.0769E-03  8.2905E-06  8.1124E-03  6.7769E-03  7.5271E-08  6.7744E-06  3.8736E-06  9.6784E-09  9.8964E-11
Zone T= "3.80000000E+02 sec" I=       1 J=       1 K=       1 F=Point
       0.0500       0.2500      -0.2500  1.01300E+00   25.000  0.00000E+00  1.00000E+00  0.99939 11.5553  5.5347E+01 -4.5821E-03  2.9217E-02  1.0769E-03  8.2712E-06  8.1781E-03  6.7760E-03  7.7678E-08  6.9572E-06  3.3183E-06  9.6786E-09  9.8943E-11
Zone T= "3.90000000E+02 sec" I=       1 J=       1 K=       1 F=Point
       0.0500       0.2500      -0.2500  1.01300E+00   25.000  0.00000E+00  1.00000E+00  0.99939 11.5677  5.5347E+01 -4.7141E-03  2.9217E-02  1.0769E-03  8.2522E-06  8.2441E-03  6.7753E-03  8.0160E-08  7.1399E-06  2.8546E-06  9.6787E-09  9.8923E-11
Zone T= "4.00000000E+02 sec" I=       1 J=       1 K=       1 F=Point
       0.0500       0.2500      -0.2500  1.01300E+00   25.000  0.00000E+00  1.00000E+00  0.99939 11.5796  5.5347E+01 -4.8466E-03  2.9217E-02  1.0769E-03  8.2336E-06  8.3103E-03  6.7747E-03  8.2708E-08  7.3225E-06  2.4667E-06  9.6789E-09  9.8903E-11
Zone T= "4.10000000E+02 sec" I=       1 J=       1 K=       1 F=Point
       0.0500       0.2500      -0.2500  1.01300E+00   25.000  0.00000E+00  1.00000E+00  0.99939 11.5912  5.5347E+01 -4.9794E-03  2.9217E-02  1.0769E-03  8.2153E-06  8.3767E-03  6.7742E-03  8.5312E-08  7.5052E-06  2.1417E-06  9.6791E-09  9.8882E-11
Zone T= "4.20000000E+02 sec" I=       1 J=       1 K=       1 F=Point
       0.0500       0.2500      -0.2500  1.01300E+00   25.000  0.00000E+00  1.00000E+00  0.99939 11.6026  5.5347E+01 -5.1124E-03  2.9217E-02  1.0769E-03  8.1975E-06  8.4432E-03  6.7738E-03  8.7963E-08  7.6877E-06  1.8686E-06  9.6792E-09  9.8862E-11
Zone T= "4.30000000E+02 sec" I=       1 J=       1 K=       1 F=Point
       0.0500       0.2500      -0.2500  1.01300E+00   25.000  0.00000E+00  1.00000E+00  0.99940 11.6136  5.5347E+01 -5.2456E-03  2.9217E-02  1.0769E-03  8.1799E-06  8.5098E-03  6.7735E-03  9.0652E-08  7.8702E-06  1.6388E-06  9.6794E-09  9.8842E-11
Zone T= "4.40000000E+02 sec" I=       1 J=       1 K=       1 F=Point
       0.0500       0.2500      -0.2500  1.01300E+00   25.000  0.00000E+00  1.00000E+00  0.99940 11.6243  5.5346E+01 -5.3790E-03  2.9217E-02  1.0769E-03  8.1627E-06  8.5765E-03  6.7732E-03  9.3371E-08  8.0526E-06  1.4449E-06  9.6796E-09  9.8821E-11
Zone T= "4.50000000E+02 sec" I=       1 J=       1 K=       1 F=Point
       0.0500       0.2500      -0.2500  1.01300E+00   25.000  0.00000E+00  1.00000E+00  0.99940 11.6348  5.5346E+01 -5.5124E-03  2.9217E-02  1.0769E-03  8.1459E-06  8.6432E-03  6.7729E-03  9.6112E-08  8.2350E-06  1.2807E-06  9.6797E-09  9.8801E-11
Zone T= "4.60000000E+02 sec" I=       1 J=       1 K=       1 F=Point
       0.0500       0.2500      -0.2500  1.01300E+00   25.000  0.00000E+00  1.00000E+00  0.99940 11.6450  5.5346E+01 -5.6460E-03  2.9217E-02  1.0769E-03  8.1293E-06  8.7099E-03  6.7727E-03  9.8865E-08  8.4173E-06  1.1413E-06  9.6799E-09  9.8781E-11
Zone T= "4.70000000E+02 sec" I=       1 J=       1 K=       1 F=Point
       0.0500       0.2500      -0.2500  1.01300E+00   25.000  0.00000E+00  1.00000E+00  0.99940 11.6550  5.5346E+01 -5.7796E-03  2.9217E-02  1.0769E-03  8.1131E-06  8.7767E-03  6.7725E-03  1.0162E-07  8.5995E-06  1.0226E-06  9.6800E-09  9.8761E-11
Zone T= "4.80000000E+02 sec" I=       1 J=       1 K=       1 F=Point
       0.0500       0.2500      -0.2500  1.01300E+00   25.000  0.00000E+00  1.00000E+00  0.99940 11.6647  5.5346E+01 -5.9132E-03  2.9217E-02  1.0769E-03  8.0972E-06  8.8435E-03  6.7723E-03  1.0438E-07  8.7816E-06  9.2117E-07  9.6802E-09  9.8740E-11
Zone T= "4.90000000E+02 sec" I=       1 J=       1 K=       1 F=Point
       0.0500       0.2500      -0.2500  1.01300E+00   25.000  0.00000E+00  1.00000E+00  0.99940 11.6742  5.5346E+01 -6.0469E-03  2.9217E-02  1.0769E-03  8.0815E-06  8.9103E-03  6.7722E-03  1.0713E-07  8.9636E-06  8.3411E-07  9.6804E-09  9.8720E-11
Zone T= "5.00000000E+02 sec" I=       1 J=       1 K=       1 F=Point
       0.0500       0.2500      -0.2500  1.01300E+00   25.000  0.00000E+00  1.00000E+00  0.99941 11.6834  5.5346E+01 -6.1805E-03  2.9217E-02  1.0769E-03  8.0662E-06  8.9771E-03  6.7721E-03  1.0985E-07  9.1455E-06  7.5910E-07  9.6805E-09  9.8700E-11
Zone T= "5.10000000E+02 sec" I=       1 J=       1 K=       1 F=Point
       0.0500       0.2500      -0.2500  1.01300E+00   25.000  0.00000E+00  1.00000E+00  0.99941 11.6925  5.5346E+01 -6.3141E-03  2.9217E-02  1.0769E-03  8.0511E-06  9.0439E-03  6.7720E-03  1.1256E-07  9.3273E-06  6.9417E-07  9.6807E-09  9.8679E-11
Zone T= "5.20000000E+02 sec" I=       1 J=       1 K=       1 F=Point
       0.0500       0.2500      -0.2500  1.01300E+00   25.000  0.00000E+00  1.00000E+00  0.99941 11.7014  5.5345E+01 -6.4477E-03  2.9217E-02  1.0769E-03  8.0363E-06  9.1107E-03  6.7719E-03  1.1524E-07  9.5090E-06  6.3770E-07  9.6809E-09  9.8659E-11
Zone T= "5.30000000E+02 sec" I=       1 J=       1 K=       1 F=Point
       0.0500       0.2500      -0.2500  1.01300E+00   25.000  0.00000E+00  1.00000E+00  0.99941 11.7101  5.5345E+01 -6.5812E-03  2.9217E-02  1.0769E-03  8.0218E-06  9.1774E-03  6.7718E-03  1.1788E-07  9.6905E-06  5.8834E-07  9.6810E-09  9.8639E-11
Zone T= "5.40000000E+02 sec" I=       1 J=       1 K=       1 F=Point
       0.0500       0.2500      -0.2500  1.01300E+00   25.000  0.00000E+00  1.00000E+00  0.99941 11.7185  5.5345E+01 -6.7147E-03  2.9217E-02  1.0769E-03  8.0075E-06  9.2441E-03  6.7717E-03  1.2048E-07  9.8718E-06  5.4496E-07  9.6812E-09  9.8618E-11
Zone T= "5.50000000E+02 sec" I=       1 J=       1 K=       1 F=Point
       0.0500       0.2500      -0.2500  1.01300E+00   25.000  0.00000E+00  1.00000E+00  0.99941 11.7269  5.5345E+01 -6.8481E-03  2.9217E-02  1.0769E-03  7.9935E-06  9.3108E-03  6.7717E-03  1.2304E-07  1.0053E-05  5.0662E-07  9.6813E-09  9.8598E-11
Zone T= "5.60000000E+02 sec" I=       1 J=       1 K=       1 F=Point
       0.0500       0.2500      -0.2500  1.01300E+00   25.000  0.00000E+00  1.00000E+00  0.99942 11.7350  5.5345E+01 -6.9814E-03  2.9217E-02  1.0769E-03  7.9797E-06  9.3775E-03  6.7716E-03  1.2555E-07  1.0234E-05  4.7256E-07  9.6815E-09  9.8578E-11
Zone T= "5.70000000E+02 sec" I=       1 J=       1 K=       1 F=Point
       0.0500       0.2500      -0.2500  1.01300E+00   25.000  0.00000E+00  1.00000E+00  0.99942 11.7430  5.5345E+01 -7.1147E-03  2.9217E-02  1.0769E-03  7.9661E-06  9.4441E-03  6.7716E-03  1.2801E-07  1.0415E-05  4.4213E-07  9.6817E-09  9.8557E-11
Zone T= "5.80000000E+02 sec" I=       1 J=       1 K=       1 F=Point
       0.0500       0.2500      -0.2500  1.01300E+00   25.000  0.00000E+00  1.00000E+00  0.99942 11.7508  5.5345E+01 -7.2479E-03  2.9217E-02  1.0769E-03  7.9528E-06  9.5107E-03  6.7715E-03  1.3042E-07  1.0595E-05  4.1480E-07  9.6818E-09  9.8537E-11
Zone T= "5.90000000E+02 sec" I=       1 J=       1 K=       1 F=Point
       0.0500       0.2500      -0.2500  1.01300E+00   25.000  0.00000E+00  1.00000E+00  0.99942 11.7585  5.5344E+01 -7.3810E-03  2.9217E-02  1.0769E-03  7.9397E-06  9.5772E-03  6.7715E-03  1.3277E-07  1.0776E-05  3.9011E-07  9.6820E-09  9.8517E-11
Zone T= "6.00000000E+02 sec" I=       1 J=       1 K=       1 F=Point
       0.0500       0.2500      -0.2500  1.01300E+00   25.000  0.00000E+00  1.00000E+00  0.99942 11.7660  5.5344E+01 -7.5140E-03  2.9217E-02  1.0769E-03  7.9268E-06  9.6437E-03  6.7714E-03  1.3507E-07  1.0956E-05  3.6772E-07  9.6822E-09  9.8496E-11
Zone T= "6.10000000E+02 sec" I=       1 J=       1 K=       1 F=Point
       0.0500       0.2500      -0.2500  1.01300E+00   25.000  0.00000E+00  1.00000E+00  0.99942 11.7734  5.5344E+01 -7.6470E-03  2.9217E-02  1.0769E-03  7.9141E-06  9.7102E-03  6.7714E-03  1.3731E-07  1.1135E-05  3.4730E-07  9.6823E-09  9.8476E-11
Zone T= "6.20000000E+02 sec" I=       1 J=       1 K=       1 F=Point
       0.0500       0.2500      -0.2500  1.01300E+00   25.000  0.00000E+00  1.00000E+00  0.99942 11.7806  5.5344E+01 -7.7798E-03  2.9217E-02  1.0769E-03  7.9016E-06  9.7766E-03  6.7714E-03  1.3950E-07  1.1315E-05  3.2861E-07  9.6825E-09  9.8456E-11
Zone T= "6.30000000E+02 sec" I=       1 J=       1 K=       1 F=Point
       0.0500       0.2500      -0.2500  1.01300E+00   25.000  0.00000E+00  1.00000E+00  0.99943 11.7877  5.5344E+01 -7.9125E-03  2.9217E-02  1.0769E-03  7.8893E-06  9.8429E-03  6.7713E-03  1.4163E-07  1.1493E-05  3.1144E-07  9.6826E-09  9.8435E-11
Zone T= "6.40000000E+02 sec" I=       1 J=       1 K=       1 F=Point
       0.0500       0.2500      -0.2500  1.01300E+00   25.000  0.00000E+00  1.00000E+00  0.99943 11.7947  5.5344E+01 -8.0451E-03  2.9217E-02  1.0769E-03  7.8772E-06  9.9092E-03  6.7713E-03  1.4371E-07  1.1672E-05  2.9560E-07  9.6828E-09  9.8415E-11
Zone T= "6.50000000E+02 sec" I=       1 J=       1 K=       1 F=Point
       0.0500       0.2500      -0.2500  1.01300E+00   25.000  0.00000E+00  1.00000E+00  0.99943 11.8016  5.5344E+01 -8.1776E-03  2.9217E-02  1.0769E-03  7.8654E-06  9.9754E-03  6.7713E-03  1.4574E-07  1.1850E-05  2.8095E-07  9.6830E-09  9.8395E-11
Zone T= "6.60000000E+02 sec" I=       1 J=       1 K=       1 F=Point
       0.0500       0.2500      -0.2500  1.01300E+00   25.000  0.00000E+00  1.00000E+00  0.99943 11.8083  5.5344E+01 -8.3100E-03  2.9217E-02  1.0769E-03  7.8536E-06  1.0042E-02  6.7712E-03  1.4771E-07  1.2027E-05  2.6736E-07  9.6831E-09  9.8375E-11
Zone T= "6.70000000E+02 sec" I=       1 J=       1 K=       1 F=Point
       0.0500       0.2500      -0.2500  1.01300E+00   25.000  0.00000E+00  1.00000E+00  0.99943 11.8150  5.5343E+01 -8.4423E-03  2.9217E-02  1.0769E-03  7.8421E-06  1.0108E-02  6.7712E-03  1.4964E-07  1.2203E-05  2.5473E-07  9.6833E-09  9.8354E-11
Zone T= "6.80000000E+02 sec" I=       1 J=       1 K=       1 F=Point
       0.0500       0.2500      -0.2500  1.01300E+00   25.000  0.00000E+00  1.00000E+00  0.99943 11.8215  5.5343E+01 -8.5745E-03  2.9217E-02  1.0769E-03  7.8308E-06  1.0174E-02  6.7712E-03  1.5151E-07  1.2379E-05  2.4295E-07  9.6835E-09  9.8334E-11
Zone T= "6.90000000E+02 sec" I=       1 J=       1 K=       1 F=Point
       0.0500       0.2500      -0.2500  1.01300E+00   25.000  0.00000E+00  1.00000E+00  0.99944 11.8279  5.5343E+01 -8.7065E-03  2.9217E-02  1.0769E-03  7.8196E-06  1.0240E-02  6.7712E-03  1.5335E-07  1.2554E-05  2.3195E-07  9.6836E-09  9.8314E-11
Zone T= "7.00000000E+02 sec" I=       1 J=       1 K=       1 F=Point
       0.0500       0.2500      -0.2500  1.01300E+00   25.000  0.00000E+00  1.00000E+00  0.99944 11.8342  5.5343E+01 -8.8385E-03  2.9217E-02  1.0769E-03  7.8086E-06  1.0306E-02  6.7711E-03  1.5513E-07  1.2728E-05  2.2166E-07  9.6838E-09  9.8293E-11
Zone T= "7.10000000E+02 sec" I=       1 J=       1 K=       1 F=Point
       0.0500       0.2500      -0.2500  1.01300E+00   25.000  0.00000E+00  1.00000E+00  0.99944 11.8404  5.5343E+01 -8.9703E-03  2.9217E-02  1.0769E-03  7.7977E-06  1.0372E-02  6.7711E-03  1.5688E-07  1.2901E-05  2.1201E-07  9.6839E-09  9.8273E-11
Zone T= "7.20000000E+02 sec" I=       1 J=       1 K=       1 F=Point
       0.0500       0.2500      -0.2500  1.01300E+00   25.000  0.00000E+00  1.00000E+00  0.99944 11.8465  5.5343E+01 -9.1019E-03  2.9217E-02  1.0769E-03  7.7871E-06  1.0437E-02  6.7711E-03  1.5859E-07  1.3072E-05  2.0296E-07  9.6841E-09  9.8253E-11
Zone T= "7.30000000E+02 sec" I=       1 J=       1 K=       1 F=Point
       0.0500       0.2500      -0.2500  1.01300E+00   25.000  0.00000E+00  1.00000E+00  0.99944 11.8525  5.5343E+01 -9.2335E-03  2.9217E-02  1.0769E-03  7.7765E-06  1.0503E-02  6.7711E-03  1.6025E-07  1.3242E-05  1.9445E-07  9.6843E-09  9.8232E-11
Zone T= "7.40000000E+02 sec" I=       1 J=       1 K=       1 F=Point
       0.0500       0.2500      -0.2500  1.01300E+00   25.000  0.00000E+00  1.00000E+00  0.99944 11.8584  5.5342E+01 -9.3649E-03  2.9217E-02  1.0769E-03  7.7662E-06  1.0569E-02  6.7711E-03  1.6189E-07  1.3411E-05  1.8644E-07  9.6844E-09  9.8212E-11
Zone T= "7.50000000E+02 sec" I=       1 J=       1 K=       1 F=Point
       0.0500       0.2500      -0.2500  1.01300E+00   25.000  0.00000E+00  1.00000E+00  0.99944 11.8642  5.5342E+01 -9.4961E-03  2.9217E-02  1.0769E-03  7.7560E-06  1.0635E-02  6.7710E-03  1.6349E-07  1.3578E-05  1.7889E-07  9.6846E-09  9.8192E-11
Zone T= "7.60000000E+02 sec" I=       1 J=       1 K=       1 F=Point
       0.0500       0.2500      -0.2500  1.01300E+00   25.000  0.00000E+00  1.00000E+00  0.99945 11.8699  5.5342E+01 -9.6272E-03  2.9217E-02  1.0769E-03  7.7459E-06  1.0700E-02  6.7710E-03  1.6505E-07  1.3742E-05  1.7176E-07  9.6848E-09  9.8171E-11
Zone T= "7.70000000E+02 sec" I=       1 J=       1 K=       1 F=Point
       0.0500       0.2500      -0.2500  1.01300E+00   25.000  0.00000E+00  1.00000E+00  0.99945 11.8756  5.5342E+01 -9.7582E-03  2.9217E-02  1.0769E-03  7.7360E-06  1.0766E-02  6.7710E-03  1.6659E-07  1.3905E-05  1.6503E-07  9.6849E-09  9.8151E-11
Zone T= "7.80000000E+02 sec" I=       1 J=       1 K=       1 F=Point
       0.0500       0.2500      -0.2500  1.01300E+00   25.000  0.00000E+00  1.00000E+00  0.99945 11.8811  5.5342E+01 -9.8890E-03  2.9217E-02  1.0769E-03  7.7262E-06  1.0831E-02  6.7710E-03  1.6810E-07  1.4065E-05  1.5867E-07  9.6851E-09  9.8131E-11
Zone T= "7.90000000E+02 sec" I=       1 J=       1 K=       1 F=Point
       0.0500       0.2500      -0.2500  1.01300E+00   25.000  0.00000E+00  1.00000E+00  0.99945 11.8866  5.5342E+01 -1.0020E-02  2.9217E-02  1.0769E-03  7.7165E-06  1.0896E-02  6.7710E-03  1.6958E-07  1.4222E-05  1.5265E-07  9.6852E-09  9.8110E-11
Zone T= "8.00000000E+02 sec" I=       1 J=       1 K=       1 F=Point
       0.0500       0.2500      -0.2500  1.01300E+00   25.000  0.00000E+00  1.00000E+00  0.99945 11.8920  5.5342E+01 -1.0150E-02  2.9217E-02  1.0769E-03  7.7070E-06  1.0962E-02  6.7710E-03  1.7103E-07  1.4375E-05  1.4694E-07  9.6854E-09  9.8090E-11
Zone T= "8.10000000E+02 sec" I=       1 J=       1 K=       1 F=Point
       0.0500       0.2500      -0.2500  1.01300E+00   25.000  0.00000E+00  1.00000E+00  0.99945 11.8973  5.5342E+01 -1.0281E-02  2.9217E-02  1.0769E-03  7.6976E-06  1.1027E-02  6.7709E-03  1.7246E-07  1.4526E-05  1.4153E-07  9.6856E-09  9.8070E-11
Zone T= "8.20000000E+02 sec" I=       1 J=       1 K=       1 F=Point
       0.0500       0.2500      -0.2500  1.01300E+00   25.000  0.00000E+00  1.00000E+00  0.99945 11.9026  5.5341E+01 -1.0411E-02  2.9217E-02  1.0769E-03  7.6884E-06  1.1092E-02  6.7709E-03  1.7387E-07  1.4673E-05  1.3639E-07  9.6857E-09  9.8050E-11
Zone T= "8.30000000E+02 sec" I=       1 J=       1 K=       1 F=Point
       0.0500       0.2500      -0.2500  1.01300E+00   25.000  0.00000E+00  1.00000E+00  0.99946 11.9077  5.5341E+01 -1.0541E-02  2.9217E-02  1.0769E-03  7.6792E-06  1.1157E-02  6.7709E-03  1.7526E-07  1.4815E-05  1.3151E-07  9.6859E-09  9.8029E-11
Zone T= "8.40000000E+02 sec" I=       1 J=       1 K=       1 F=Point
       0.0500       0.2500      -0.2500  1.01300E+00   25.000  0.00000E+00  1.00000E+00  0.99946 11.9128  5.5341E+01 -1.0671E-02  2.9217E-02  1.0769E-03  7.6703E-06  1.1222E-02  6.7709E-03  1.7663E-07  1.4953E-05  1.2688E-07  9.6861E-09  9.8009E-11
Zone T= "8.50000000E+02 sec" I=       1 J=       1 K=       1 F=Point
       0.0500       0.2500      -0.2500  1.01300E+00   25.000  0.00000E+00  1.00000E+00  0.99946 11.9179  5.5341E+01 -1.0800E-02  2.9217E-02  1.0769E-03  7.6614E-06  1.1287E-02  6.7709E-03  1.7798E-07  1.5086E-05  1.2247E-07  9.6862E-09  9.7989E-11
Zone T= "8.60000000E+02 sec" I=       1 J=       1 K=       1 F=Point
       0.0500       0.2500      -0.2500  1.01300E+00   25.000  0.00000E+00  1.00000E+00  0.99946 11.9228  5.5341E+01 -1.0930E-02  2.9217E-02  1.0769E-03  7.6526E-06  1.1351E-02  6.7709E-03  1.7931E-07  1.5213E-05  1.1827E-07  9.6864E-09  9.7968E-11
Zone T= "8.70000000E+02 sec" I=       1 J=       1 K=       1 F=Point
       0.0500       0.2500      -0.2500  1.01300E+00   25.000  0.00000E+00  1.00000E+00  0.99946 11.9277  5.5341E+01 -1.1059E-02  2.9217E-02  1.0769E-03  7.6440E-06  1.1416E-02  6.7709E-03  1.8063E-07  1.5334E-05  1.1426E-07  9.6865E-09  9.7948E-11
Zone T= "8.80000000E+02 sec" I=       1 J=       1 K=       1 F=Point
       0.0500       0.2500      -0.2500  1.01300E+00   25.000  0.00000E+00  1.00000E+00  0.99946 11.9325  5.5341E+01 -1.1189E-02  2.9217E-02  1.0769E-03  7.6355E-06  1.1481E-02  6.7708E-03  1.8193E-07  1.5450E-05  1.1045E-07  9.6867E-09  9.7928E-11
Zone T= "8.90000000E+02 sec" I=       1 J=       1 K=       1 F=Point
       0.0500       0.2500      -0.2500  1.01300E+00   25.000  0.00000E+00  1.00000E+00  0.99946 11.9373  5.5341E+01 -1.1318E-02  2.9217E-02  1.0769E-03  7.6270E-06  1.1545E-02  6.7708E-03  1.8322E-07  1.5558E-05  1.0681E-07  9.6869E-09  9.7907E-11
Zone T= "9.00000000E+02 sec" I=       1 J=       1 K=       1 F=Point
       0.0500       0.2500      -0.2500  1.01300E+00   25.000  0.00000E+00  1.00000E+00  0.99947 11.9420  5.5340E+01 -1.1446E-02  2.9217E-02  1.0769E-03  7.6188E-06  1.1609E-02  6.7708E-03  1.8449E-07  1.5659E-05  1.0334E-07  9.6870E-09  9.7887E-11
Zone T= "9.10000000E+02 sec" I=       1 J=       1 K=       1 F=Point
       0.0500       0.2500      -0.2500  1.01300E+00   25.000  0.00000E+00  1.00000E+00  0.99947 11.9466  5.5340E+01 -1.1575E-02  2.9217E-02  1.0769E-03  7.6106E-06  1.1674E-02  6.7708E-03  1.8575E-07  1.5753E-05  1.0002E-07  9.6872E-09  9.7867E-11
Zone T= "9.20000000E+02 sec" I=       1 J=       1 K=       1 F=Point