Title="TOUGHREACT V3.60demo: Aqueous Total & Species Concentrations in      mol/L, Surface & Exchanged Species in      mol/L, Dry blocks in mol/L medium"
Variables= "X(m)"   "Y(m)"   "Z(m)"   "P(bar)"     "T(C)"   "SatGas"   "SatLiq"     "aH2O"       "pH"        "t_h2o"         "t_h+"        "t_na+"        "t_cl-"      "t_hco3-"       "t_ca+2"      "t_so4-2"       "t_mg+2"     "t_h4sio4"       "t_al+3"       "t_fe+2"        "t_hs-"
Zone T= "0.00000000E+00 sec" I=     125 J=       1 K=       1 F=Point
       0.0050       0.0500   -5091.0000  8.06011E+02  170.000  0.00000E+00  1.00000E+00  0.87977  9.2683  5.2221E+01 -2.5344E-02  2.6680E+00  3.8538E+00  1.5767E-03  1.5253E-01  4.3653E-01  3.8577E-06  3.0259E-05  2.1705E-04  9.7420E-06  6.5425E-04
       0.0150       0.0500   -5091.0000  8.06011E+02  170.000  0.00000E+00  1.00000E+00  0.87977  9.2683  5.2221E+01 -2.5344E-02  2.6680E+00  3.8538E+00  1.5767E-03  1.5253E-01  4.3653E-01  3.8577E-06  3.0259E-05  2.1705E-04  9.7420E-06  6.5425E-04
       0.0250       0.0500   -5091.0000  8.06011E+02  170.000  0.00000E+00  1.00000E+00  0.87977  9.2683  5.2221E+01 -2.5344E-02  2.6680E+00  3.8538E+00  1.5767E-03  1.5253E-01  4.3653E-01  3.8577E-06  3.0259E-05  2.1705E-04  9.7420E-06  6.5425E-04
       0.0350       0.0500   -5091.0000  8.06011E+02  170.000  0.00000E+00  1.00000E+00  0.87977  9.2683  5.2221E+01 -2.5344E-02  2.6680E+00  3.8538E+00  1.5767E-03  1.5253E-01  4.3653E-01  3.8577E-06  3.0259E-05  2.1705E-04  9.7420E-06  6.5425E-04
       0.0450       0.0500   -5091.0000  8.06011E+02  170.000  0.00000E+00  1.00000E+00  0.87977  9.2683  5.2221E+01 -2.5344E-02  2.6680E+00  3.8538E+00  1.5767E-03  1.5253E-01  4.3653E-01  3.8577E-06  3.0259E-05  2.1705E-04  9.7420E-06  6.5425E-04
       0.0550       0.0500   -5091.0000  8.06011E+02  170.000  0.00000E+00  1.00000E+00  0.87977  9.2683  5.2221E+01 -2.5344E-02  2.6680E+00  3.8538E+00  1.5767E-03  1.5253E-01  4.3653E-01  3.8577E-06  3.0259E-05  2.1705E-04  9.7420E-06  6.5425E-04
       0.0650       0.0500   -5091.0000  8.06011E+02  170.000  0.00000E+00  1.00000E+00  0.87977  9.2683  5.2221E+01 -2.5344E-02  2.6680E+00  3.8538E+00  1.5767E-03  1.5253E-01  4.3653E-01  3.8577E-06  3.0259E-05  2.1705E-04  9.7420E-06  6.5425E-04
       0.0750       0.0500   -5091.0000  8.06011E+02  170.000  0.00000E+00  1.00000E+00  0.87977  9.2683  5.2221E+01 -2.5344E-02  2.6680E+00  3.8538E+00  1.5767E-03  1.5253E-01  4.3653E-01  3.8577E-06  3.0259E-05  2.1705E-04  9.7420E-06  6.5425E-04
       0.0850       0.0500   -5091.0000  8.06011E+02  170.000  0.00000E+00  1.00000E+00  0.87977  9.2683  5.2221E+01 -2.5344E-02  2.6680E+00  3.8538E+00  1.5767E-03  1.5253E-01  4.3653E-01  3.8577E-06  3.0259E-05  2.1705E-04  9.7420E-06  6.5425E-04
       0.0950       0.0500   -5091.0000  8.06011E+02  170.000  0.00000E+00  1.00000E+00  0.87977  9.2683  5.2221E+01 -2.5344E-02  2.6680E+00  3.8538E+00  1.5767E-03  1.5253E-01  4.3653E-01  3.8577E-06  3.0259E-05  2.1705E-04  9.7420E-06  6.5425E-04
       0.1050       0.0500   -5091.0000  8.06011E+02  170.000  0.00000E+00  1.00000E+00  0.87977  9.2683  5.2221E+01 -2.5344E-02  2.6680E+00  3.8538E+00  1.5767E-03  1.5253E-01  4.3653E-01  3.8577E-06  3.0259E-05  2.1705E-04  9.7420E-06  6.5425E-04
       0.1150       0.0500   -5091.0000  8.06011E+02  170.000  0.00000E+00  1.00000E+00  0.87977  9.2683  5.2221E+01 -2.5344E-02  2.6680E+00  3.8538E+00  1.5767E-03  1.5253E-01  4.3653E-01  3.8577E-06  3.0259E-05  2.1705E-04  9.7420E-06  6.5425E-04
       0.1250       0.0500   -5091.0000  8.06011E+02  170.000  0.00000E+00  1.00000E+00  0.87977  9.2683  5.2221E+01 -2.5344E-02  2.6680E+00  3.8538E+00  1.5767E-03  1.5253E-01  4.3653E-01  3.8577E-06  3.0259E-05  2.1705E-04  9.7420E-06  6.5425E-04
       0.1350       0.0500   -5091.0000  8.06011E+02  170.000  0.00000E+00  1.00000E+00  0.87977  9.2683  5.2221E+01 -2.5344E-02  2.6680E+00  3.8538E+00  1.5767E-03  1.5253E-01  4.3653E-01  3.8577E-06  3.0259E-05  2.1705E-04  9.7420E-06  6.5425E-04
       0.1450       0.0500   -5091.0000  8.06011E+02  170.000  0.00000E+00  1.00000E+00  0.87977  9.2683  5.2221E+01 -2.5344E-02  2.6680E+00  3.8538E+00  1.5767E-03  1.5253E-01  4.3653E-01  3.8577E-06  3.0259E-05  2.1705E-04  9.7420E-06  6.5425E-04
       0.1550       0.0500   -5091.0000  8.06011E+02  170.000  0.00000E+00  1.00000E+00  0.87977  9.2683  5.2221E+01 -2.5344E-02  2.6680E+00  3.8538E+00  1.5767E-03  1.5253E-01  4.3653E-01  3.8577E-06  3.0259E-05  2.1705E-04  9.7420E-06  6.5425E-04
       0.1650       0.0500   -5091.0000  8.06011E+02  170.000  0.00000E+00  1.00000E+00  0.87977  9.2683  5.2221E+01 -2.5344E-02  2.6680E+00  3.8538E+00  1.5767E-03  1.5253E-01  4.3653E-01  3.8577E-06  3.0259E-05  2.1705E-04  9.7420E-06  6.5425E-04
       0.1750       0.0500   -5091.0000  8.06011E+02  170.000  0.00000E+00  1.00000E+00  0.87977  9.2683  5.2221E+01 -2.5344E-02  2.6680E+00  3.8538E+00  1.5767E-03  1.5253E-01  4.3653E-01  3.8577E-06  3.0259E-05  2.1705E-04  9.7420E-06  6.5425E-04
       0.1850       0.0500   -5091.0000  8.06011E+02  170.000  0.00000E+00  1.00000E+00  0.87977  9.2683  5.2221E+01 -2.5344E-02  2.6680E+00  3.8538E+00  1.5767E-03  1.5253E-01  4.3653E-01  3.8577E-06  3.0259E-05  2.1705E-04  9.7420E-06  6.5425E-04
       0.1950       0.0500   -5091.0000  8.06011E+02  170.000  0.00000E+00  1.00000E+00  0.87977  9.2683  5.2221E+01 -2.5344E-02  2.6680E+00  3.8538E+00  1.5767E-03  1.5253E-01  4.3653E-01  3.8577E-06  3.0259E-05  2.1705E-04  9.7420E-06  6.5425E-04
       0.2050       0.0500   -5091.0000  8.06011E+02  170.000  0.00000E+00  1.00000E+00  0.87977  9.2683  5.2221E+01 -2.5344E-02  2.6680E+00  3.8538E+00  1.5767E-03  1.5253E-01  4.3653E-01  3.8577E-06  3.0259E-05  2.1705E-04  9.7420E-06  6.5425E-04
       0.2150       0.0500   -5091.0000  8.06011E+02  170.000  0.00000E+00  1.00000E+00  0.87977  9.2683  5.2221E+01 -2.5344E-02  2.6680E+00  3.8538E+00  1.5767E-03  1.5253E-01  4.3653E-01  3.8577E-06  3.0259E-05  2.1705E-04  9.7420E-06  6.5425E-04
       0.2250       0.0500   -5091.0000  8.06011E+02  170.000  0.00000E+00  1.00000E+00  0.87977  9.2683  5.2221E+01 -2.5344E-02  2.6680E+00  3.8538E+00  1.5767E-03  1.5253E-01  4.3653E-01  3.8577E-06  3.0259E-05  2.1705E-04  9.7420E-06  6.5425E-04
       0.2350       0.0500   -5091.0000  8.06011E+02  170.000  0.00000E+00  1.00000E+00  0.87977  9.2683  5.2221E+01 -2.5344E-02  2.6680E+00  3.8538E+00  1.5767E-03  1.5253E-01  4.3653E-01  3.8577E-06  3.0259E-05  2.1705E-04  9.7420E-06  6.5425E-04
       0.2450       0.0500   -5091.0000  8.06011E+02  170.000  0.00000E+00  1.00000E+00  0.87977  9.2683  5.2221E+01 -2.5344E-02  2.6680E+00  3.8538E+00  1.5767E-03  1.5253E-01  4.3653E-01  3.8577E-06  3.0259E-05  2.1705E-04  9.7420E-06  6.5425E-04
       0.0050       0.0500   -5093.0000  8.06011E+02  170.000  0.00000E+00  1.00000E+00  0.87977  9.2683  5.2221E+01 -2.5344E-02  2.6680E+00  3.8538E+00  1.5767E-03  1.5253E-01  4.3653E-01  3.8577E-06  3.0259E-05  2.1705E-04  9.7420E-06  6.5425E-04
       0.0150       0.0500   -5093.0000  8.06011E+02  170.000  0.00000E+00  1.00000E+00  0.87977  9.2683  5.2221E+01 -2.5344E-02  2.6680E+00  3.8538E+00  1.5767E-03  1.5253E-01  4.3653E-01  3.8577E-06  3.0259E-05  2.1705E-04  9.7420E-06  6.5425E-04
       0.0250       0.0500   -5093.0000  8.06011E+02  170.000  0.00000E+00  1.00000E+00  0.87977  9.2683  5.2221E+01 -2.5344E-02  2.6680E+00  3.8538E+00  1.5767E-03  1.5253E-01  4.3653E-01  3.8577E-06  3.0259E-05  2.1705E-04  9.7420E-06  6.5425E-04
       0.0350       0.0500   -5093.0000  8.06011E+02  170.000  0.00000E+00  1.00000E+00  0.87977  9.2683  5.2221E+01 -2.5344E-02  2.6680E+00  3.8538E+00  1.5767E-03  1.5253E-01  4.3653E-01  3.8577E-06  3.0259E-05  2.1705E-04  9.7420E-06  6.5425E-04
       0.0450       0.0500   -5093.0000  8.06011E+02  170.000  0.00000E+00  1.00000E+00  0.87977  9.2683  5.2221E+01 -2.5344E-02  2.6680E+00  3.8538E+00  1.5767E-03  1.5253E-01  4.3653E-01  3.8577E-06  3.0259E-05  2.1705E-04  9.7420E-06  6.5425E-04
       0.0550       0.0500   -5093.0000  8.06011E+02  170.000  0.00000E+00  1.00000E+00  0.87977  9.2683  5.2221E+01 -2.5344E-02  2.6680E+00  3.8538E+00  1.5767E-03  1.5253E-01  4.3653E-01  3.8577E-06  3.0259E-05  2.1705E-04  9.7420E-06  6.5425E-04
       0.0650       0.0500   -5093.0000  8.06011E+02  170.000  0.00000E+00  1.00000E+00  0.87977  9.2683  5.2221E+01 -2.5344E-02  2.6680E+00  3.8538E+00  1.5767E-03  1.5253E-01  4.3653E-01  3.8577E-06  3.0259E-05  2.1705E-04  9.7420E-06  6.5425E-04
       0.0750       0.0500   -5093.0000  8.06011E+02  170.000  0.00000E+00  1.00000E+00  0.87977  9.2683  5.2221E+01 -2.5344E-02  2.6680E+00  3.8538E+00  1.5767E-03  1.5253E-01  4.3653E-01  3.8577E-06  3.0259E-05  2.1705E-04  9.7420E-06  6.5425E-04
       0.0850       0.0500   -5093.0000  8.06011E+02  170.000  0.00000E+00  1.00000E+00  0.87977  9.2683  5.2221E+01 -2.5344E-02  2.6680E+00  3.8538E+00  1.5767E-03  1.5253E-01  4.3653E-01  3.8577E-06  3.0259E-05  2.1705E-04  9.7420E-06  6.5425E-04
       0.0950       0.0500   -5093.0000  8.06011E+02  170.000  0.00000E+00  1.00000E+00  0.87977  9.2683  5.2221E+01 -2.5344E-02  2.6680E+00  3.8538E+00  1.5767E-03  1.5253E-01  4.3653E-01  3.8577E-06  3.0259E-05  2.1705E-04  9.7420E-06  6.5425E-04
       0.1050       0.0500   -5093.0000  8.06011E+02  170.000  0.00000E+00  1.00000E+00  0.87977  9.2683  5.2221E+01 -2.5344E-02  2.6680E+00  3.8538E+00  1.5767E-03  1.5253E-01  4.3653E-01  3.8577E-06  3.0259E-05  2.1705E-04  9.7420E-06  6.5425E-04
       0.1150       0.0500   -5093.0000  8.06011E+02  170.000  0.00000E+00  1.00000E+00  0.87977  9.2683  5.2221E+01 -2.5344E-02  2.6680E+00  3.8538E+00  1.5767E-03  1.5253E-01  4.3653E-01  3.8577E-06  3.0259E-05  2.1705E-04  9.7420E-06  6.5425E-04
       0.1250       0.0500   -5093.0000  8.06011E+02  170.000  0.00000E+00  1.00000E+00  0.87977  9.2683  5.2221E+01 -2.5344E-02  2.6680E+00  3.8538E+00  1.5767E-03  1.5253E-01  4.3653E-01  3.8577E-06  3.0259E-05  2.1705E-04  9.7420E-06  6.5425E-04
       0.1350       0.0500   -5093.0000  8.06011E+02  170.000  0.00000E+00  1.00000E+00  0.87977  9.2683  5.2221E+01 -2.5344E-02  2.6680E+00  3.8538E+00  1.5767E-03  1.5253E-01  4.3653E-01  3.8577E-06  3.0259E-05  2.1705E-04  9.7420E-06  6.5425E-04
       0.1450       0.0500   -5093.0000  8.06011E+02  170.000  0.00000E+00  1.00000E+00  0.87977  9.2683  5.2221E+01 -2.5344E-02  2.6680E+00  3.8538E+00  1.5767E-03  1.5253E-01  4.3653E-01  3.8577E-06  3.0259E-05  2.1705E-04  9.7420E-06  6.5425E-04
       0.1550       0.0500   -5093.0000  8.06011E+02  170.000  0.00000E+00  1.00000E+00  0.87977  9.2683  5.2221E+01 -2.5344E-02  2.6680E+00  3.8538E+00  1.5767E-03  1.5253E-01  4.3653E-01  3.8577E-06  3.0259E-05  2.1705E-04  9.7420E-06  6.5425E-04
       0.1650       0.0500   -5093.0000  8.06011E+02  170.000  0.00000E+00  1.00000E+00  0.87977  9.2683  5.2221E+01 -2.5344E-02  2.6680E+00  3.8538E+00  1.5767E-03  1.5253E-01  4.3653E-01  3.8577E-06  3.0259E-05  2.1705E-04  9.7420E-06  6.5425E-04
       0.1750       0.0500   -5093.0000  8.06011E+02  170.000  0.00000E+00  1.00000E+00  0.87977  9.2683  5.2221E+01 -2.5344E-02  2.6680E+00  3.8538E+00  1.5767E-03  1.5253E-01  4.3653E-01  3.8577E-06  3.0259E-05  2.1705E-04  9.7420E-06  6.5425E-04
       0.1850       0.0500   -5093.0000  8.06011E+02  170.000  0.00000E+00  1.00000E+00  0.87977  9.2683  5.2221E+01 -2.5344E-02  2.6680E+00  3.8538E+00  1.5767E-03  1.5253E-01  4.3653E-01  3.8577E-06  3.0259E-05  2.1705E-04  9.7420E-06  6.5425E-04
       0.1950       0.0500   -5093.0000  8.06011E+02  170.000  0.00000E+00  1.00000E+00  0.87977  9.2683  5.2221E+01 -2.5344E-02  2.6680E+00  3.8538E+00  1.5767E-03  1.5253E-01  4.3653E-01  3.8577E-06  3.0259E-05  2.1705E-04  9.7420E-06  6.5425E-04
       0.2050       0.0500   -5093.0000  8.06011E+02  170.000  0.00000E+00  1.00000E+00  0.87977  9.2683  5.2221E+01 -2.5344E-02  2.6680E+00  3.8538E+00  1.5767E-03  1.5253E-01  4.3653E-01  3.8577E-06  3.0259E-05  2.1705E-04  9.7420E-06  6.5425E-04
       0.2150       0.0500   -5093.0000  8.06011E+02  170.000  0.00000E+00  1.00000E+00  0.87977  9.2683  5.2221E+01 -2.5344E-02  2.6680E+00  3.8538E+00  1.5767E-03  1.5253E-01  4.3653E-01  3.8577E-06  3.0259E-05  2.1705E-04  9.7420E-06  6.5425E-04
       0.2250       0.0500   -5093.0000  8.06011E+02  170.000  0.00000E+00  1.00000E+00  0.87977  9.2683  5.2221E+01 -2.5344E-02  2.6680E+00  3.8538E+00  1.5767E-03  1.5253E-01  4.3653E-01  3.8577E-06  3.0259E-05  2.1705E-04  9.7420E-06  6.5425E-04
       0.2350       0.0500   -5093.0000  8.06011E+02  170.000  0.00000E+00  1.00000E+00  0.87977  9.2683  5.2221E+01 -2.5344E-02  2.6680E+00  3.8538E+00  1.5767E-03  1.5253E-01  4.3653E-01  3.8577E-06  3.0259E-05  2.1705E-04  9.7420E-06  6.5425E-04
       0.2450       0.0500   -5093.0000  8.06011E+02  170.000  0.00000E+00  1.00000E+00  0.87977  9.2683  5.2221E+01 -2.5344E-02  2.6680E+00  3.8538E+00  1.5767E-03  1.5253E-01  4.3653E-01  3.8577E-06  3.0259E-05  2.1705E-04  9.7420E-06  6.5425E-04
       0.0050       0.0500   -5095.0000  8.06011E+02  170.000  0.00000E+00  1.00000E+00  0.87977  9.2683  5.2221E+01 -2.5344E-02  2.6680E+00  3.8538E+00  1.5767E-03  1.5253E-01  4.3653E-01  3.8577E-06  3.0259E-05  2.1705E-04  9.7420E-06  6.5425E-04
       0.0150       0.0500   -5095.0000  8.06011E+02  170.000  0.00000E+00  1.00000E+00  0.87977  9.2683  5.2221E+01 -2.5344E-02  2.6680E+00  3.8538E+00  1.5767E-03  1.5253E-01  4.3653E-01  3.8577E-06  3.0259E-05  2.1705E-04  9.7420E-06  6.5425E-04
       0.0250       0.0500   -5095.0000  8.06011E+02  170.000  0.00000E+00  1.00000E+00  0.87977  9.2683  5.2221E+01 -2.5344E-02  2.6680E+00  3.8538E+00  1.5767E-03  1.5253E-01  4.3653E-01  3.8577E-06  3.0259E-05  2.1705E-04  9.7420E-06  6.5425E-04
       0.0350       0.0500   -5095.0000  8.06011E+02  170.000  0.00000E+00  1.00000E+00  0.87977  9.2683  5.2221E+01 -2.5344E-02  2.6680E+00  3.8538E+00  1.5767E-03  1.5253E-01  4.3653E-01  3.8577E-06  3.0259E-05  2.1705E-04  9.7420E-06  6.5425E-04
       0.0450       0.0500   -5095.0000  8.06011E+02  170.000  0.00000E+00  1.00000E+00  0.87977  9.2683  5.2221E+01 -2.5344E-02  2.6680E+00  3.8538E+00  1.5767E-03  1.5253E-01  4.3653E-01  3.8577E-06  3.0259E-05  2.1705E-04  9.7420E-06  6.5425E-04
       0.0550       0.0500   -5095.0000  8.06011E+02  170.000  0.00000E+00  1.00000E+00  0.87977  9.2683  5.2221E+01 -2.5344E-02  2.6680E+00  3.8538E+00  1.5767E-03  1.5253E-01  4.3653E-01  3.8577E-06  3.0259E-05  2.1705E-04  9.7420E-06  6.5425E-04
       0.0650       0.0500   -5095.0000  8.06011E+02  170.000  0.00000E+00  1.00000E+00  0.87977  9.2683  5.2221E+01 -2.5344E-02  2.6680E+00  3.8538E+00  1.5767E-03  1.5253E-01  4.3653E-01  3.8577E-06  3.0259E-05  2.1705E-04  9.7420E-06  6.5425E-04
       0.0750       0.0500   -5095.0000  8.06011E+02  170.000  0.00000E+00  1.00000E+00  0.87977  9.2683  5.2221E+01 -2.5344E-02  2.6680E+00  3.8538E+00  1.5767E-03  1.5253E-01  4.3653E-01  3.8577E-06  3.0259E-05  2.1705E-04  9.7420E-06  6.5425E-04
       0.0850       0.0500   -5095.0000  8.06011E+02  170.000  0.00000E+00  1.00000E+00  0.87977  9.2683  5.2221E+01 -2.5344E-02  2.6680E+00  3.8538E+00  1.5767E-03  1.5253E-01  4.3653E-01  3.8577E-06  3.0259E-05  2.1705E-04  9.7420E-06  6.5425E-04
       0.0950       0.0500   -5095.0000  8.06011E+02  170.000  0.00000E+00  1.00000E+00  0.87977  9.2683  5.2221E+01 -2.5344E-02  2.6680E+00  3.8538E+00  1.5767E-03  1.5253E-01  4.3653E-01  3.8577E-06  3.0259E-05  2.1705E-04  9.7420E-06  6.5425E-04
       0.1050       0.0500   -5095.0000  8.06011E+02  170.000  0.00000E+00  1.00000E+00  0.87977  9.2683  5.2221E+01 -2.5344E-02  2.6680E+00  3.8538E+00  1.5767E-03  1.5253E-01  4.3653E-01  3.8577E-06  3.0259E-05  2.1705E-04  9.7420E-06  6.5425E-04
       0.1150       0.0500   -5095.0000  8.06011E+02  170.000  0.00000E+00  1.00000E+00  0.87977  9.2683  5.2221E+01 -2.5344E-02  2.6680E+00  3.8538E+00  1.5767E-03  1.5253E-01  4.3653E-01  3.8577E-06  3.0259E-05  2.1705E-04  9.7420E-06  6.5425E-04
       0.1250       0.0500   -5095.0000  8.06011E+02  170.000  0.00000E+00  1.00000E+00  0.87977  9.2683  5.2221E+01 -2.5344E-02  2.6680E+00  3.8538E+00  1.5767E-03  1.5253E-01  4.3653E-01  3.8577E-06  3.0259E-05  2.1705E-04  9.7420E-06  6.5425E-04
       0.1350       0.0500   -5095.0000  8.06011E+02  170.000  0.00000E+00  1.00000E+00  0.87977  9.2683  5.2221E+01 -2.5344E-02  2.6680E+00  3.8538E+00  1.5767E-03  1.5253E-01  4.3653E-01  3.8577E-06  3.0259E-05  2.1705E-04  9.7420E-06  6.5425E-04
       0.1450       0.0500   -5095.0000  8.06011E+02  170.000  0.00000E+00  1.00000E+00  0.87977  9.2683  5.2221E+01 -2.5344E-02  2.6680E+00  3.8538E+00  1.5767E-03  1.5253E-01  4.3653E-01  3.8577E-06  3.0259E-05  2.1705E-04  9.7420E-06  6.5425E-04
       0.1550       0.0500   -5095.0000  8.06011E+02  170.000  0.00000E+00  1.00000E+00  0.87977  9.2683  5.2221E+01 -2.5344E-02  2.6680E+00  3.8538E+00  1.5767E-03  1.5253E-01  4.3653E-01  3.8577E-06  3.0259E-05  2.1705E-04  9.7420E-06  6.5425E-04
       0.1650       0.0500   -5095.0000  8.06011E+02  170.000  0.00000E+00  1.00000E+00  0.87977  9.2683  5.2221E+01 -2.5344E-02  2.6680E+00  3.8538E+00  1.5767E-03  1.5253E-01  4.3653E-01  3.8577E-06  3.0259E-05  2.1705E-04  9.7420E-06  6.5425E-04
       0.1750       0.0500   -5095.0000  8.06011E+02  170.000  0.00000E+00  1.00000E+00  0.87977  9.2683  5.2221E+01 -2.5344E-02  2.6680E+00  3.8538E+00  1.5767E-03  1.5253E-01  4.3653E-01  3.8577E-06  3.0259E-05  2.1705E-04  9.7420E-06  6.5425E-04
       0.1850       0.0500   -5095.0000  8.06011E+02  170.000  0.00000E+00  1.00000E+00  0.87977  9.2683  5.2221E+01 -2.5344E-02  2.6680E+00  3.8538E+00  1.5767E-03  1.5253E-01  4.3653E-01  3.8577E-06  3.0259E-05  2.1705E-04  9.7420E-06  6.5425E-04
       0.1950       0.0500   -5095.0000  8.06011E+02  170.000  0.00000E+00  1.00000E+00  0.87977  9.2683  5.2221E+01 -2.5344E-02  2.6680E+00  3.8538E+00  1.5767E-03  1.5253E-01  4.3653E-01  3.8577E-06  3.0259E-05  2.1705E-04  9.7420E-06  6.5425E-04
       0.2050       0.0500   -5095.0000  8.06011E+02  170.000  0.00000E+00  1.00000E+00  0.87977  9.2683  5.2221E+01 -2.5344E-02  2.6680E+00  3.8538E+00  1.5767E-03  1.5253E-01  4.3653E-01  3.8577E-06  3.0259E-05  2.1705E-04  9.7420E-06  6.5425E-04
       0.2150       0.0500   -5095.0000  8.06011E+02  170.000  0.00000E+00  1.00000E+00  0.87977  9.2683  5.2221E+01 -2.5344E-02  2.6680E+00  3.8538E+00  1.5767E-03  1.5253E-01  4.3653E-01  3.8577E-06  3.0259E-05  2.1705E-04  9.7420E-06  6.5425E-04
       0.2250       0.0500   -5095.0000  8.06011E+02  170.000  0.00000E+00  1.00000E+00  0.87977  9.2683  5.2221E+01 -2.5344E-02  2.6680E+00  3.8538E+00  1.5767E-03  1.5253E-01  4.3653E-01  3.8577E-06  3.0259E-05  2.1705E-04  9.7420E-06  6.5425E-04
       0.2350       0.0500   -5095.0000  8.06011E+02  170.000  0.00000E+00  1.00000E+00  0.87977  9.2683  5.2221E+01 -2.5344E-02  2.6680E+00  3.8538E+00  1.5767E-03  1.5253E-01  4.3653E-01  3.8577E-06  3.0259E-05  2.1705E-04  9.7420E-06  6.5425E-04
       0.2450       0.0500   -5095.0000  8.06011E+02  170.000  0.00000E+00  1.00000E+00  0.87977  9.2683  5.2221E+01 -2.5344E-02  2.6680E+00  3.8538E+00  1.5767E-03  1.5253E-01  4.3653E-01  3.8577E-06  3.0259E-05  2.1705E-04  9.7420E-06  6.5425E-04
       0.0050       0.0500   -5097.0000  8.06011E+02  170.000  0.00000E+00  1.00000E+00  0.87977  9.2683  5.2221E+01 -2.5344E-02  2.6680E+00  3.8538E+00  1.5767E-03  1.5253E-01  4.3653E-01  3.8577E-06  3.0259E-05  2.1705E-04  9.7420E-06  6.5425E-04
       0.0150       0.0500   -5097.0000  8.06011E+02  170.000  0.00000E+00  1.00000E+00  0.87977  9.2683  5.2221E+01 -2.5344E-02  2.6680E+00  3.8538E+00  1.5767E-03  1.5253E-01  4.3653E-01  3.8577E-06  3.0259E-05  2.1705E-04  9.7420E-06  6.5425E-04
       0.0250       0.0500   -5097.0000  8.06011E+02  170.000  0.00000E+00  1.00000E+00  0.87977  9.2683  5.2221E+01 -2.5344E-02  2.6680E+00  3.8538E+00  1.5767E-03  1.5253E-01  4.3653E-01  3.8577E-06  3.0259E-05  2.1705E-04  9.7420E-06  6.5425E-04
       0.0350       0.0500   -5097.0000  8.06011E+02  170.000  0.00000E+00  1.00000E+00  0.87977  9.2683  5.2221E+01 -2.5344E-02  2.6680E+00  3.8538E+00  1.5767E-03  1.5253E-01  4.3653E-01  3.8577E-06  3.0259E-05  2.1705E-04  9.7420E-06  6.5425E-04
       0.0450       0.0500   -5097.0000  8.06011E+02  170.000  0.00000E+00  1.00000E+00  0.87977  9.2683  5.2221E+01 -2.5344E-02  2.6680E+00  3.8538E+00  1.5767E-03  1.5253E-01  4.3653E-01  3.8577E-06  3.0259E-05  2.1705E-04  9.7420E-06  6.5425E-04
       0.0550       0.0500   -5097.0000  8.06011E+02  170.000  0.00000E+00  1.00000E+00  0.87977  9.2683  5.2221E+01 -2.5344E-02  2.6680E+00  3.8538E+00  1.5767E-03  1.5253E-01  4.3653E-01  3.8577E-06  3.0259E-05  2.1705E-04  9.7420E-06  6.5425E-04
       0.0650       0.0500   -5097.0000  8.06011E+02  170.000  0.00000E+00  1.00000E+00  0.87977  9.2683  5.2221E+01 -2.5344E-02  2.6680E+00  3.8538E+00  1.5767E-03  1.5253E-01  4.3653E-01  3.8577E-06  3.0259E-05  2.1705E-04  9.7420E-06  6.5425E-04
       0.0750       0.0500   -5097.0000  8.06011E+02  170.000  0.00000E+00  1.00000E+00  0.87977  9.2683  5.2221E+01 -2.5344E-02  2.6680E+00  3.8538E+00  1.5767E-03  1.5253E-01  4.3653E-01  3.8577E-06  3.0259E-05  2.1705E-04  9.7420E-06  6.5425E-04
       0.0850       0.0500   -5097.0000  8.06011E+02  170.000  0.00000E+00  1.00000E+00  0.87977  9.2683  5.2221E+01 -2.5344E-02  2.6680E+00  3.8538E+00  1.5767E-03  1.5253E-01  4.3653E-01  3.8577E-06  3.0259E-05  2.1705E-04  9.7420E-06  6.5425E-04
       0.0950       0.0500   -5097.0000  8.06011E+02  170.000  0.00000E+00  1.00000E+00  0.87977  9.2683  5.2221E+01 -2.5344E-02  2.6680E+00  3.8538E+00  1.5767E-03  1.5253E-01  4.3653E-01  3.8577E-06  3.0259E-05  2.1705E-04  9.7420E-06  6.5425E-04
       0.1050       0.0500   -5097.0000  8.06011E+02  170.000  0.00000E+00  1.00000E+00  0.87977  9.2683  5.2221E+01 -2.5344E-02  2.6680E+00  3.8538E+00  1.5767E-03  1.5253E-01  4.3653E-01  3.8577E-06  3.0259E-05  2.1705E-04  9.7420E-06  6.5425E-04
       0.1150       0.0500   -5097.0000  8.06011E+02  170.000  0.00000E+00  1.00000E+00  0.87977  9.2683  5.2221E+01 -2.5344E-02  2.6680E+00  3.8538E+00  1.5767E-03  1.5253E-01  4.3653E-01  3.8577E-06  3.0259E-05  2.1705E-04  9.7420E-06  6.5425E-04
       0.1250       0.0500   -5097.0000  8.06011E+02  170.000  0.00000E+00  1.00000E+00  0.87977  9.2683  5.2221E+01 -2.5344E-02  2.6680E+00  3.8538E+00  1.5767E-03  1.5253E-01  4.3653E-01  3.8577E-06  3.0259E-05  2.1705E-04  9.7420E-06  6.5425E-04
       0.1350       0.0500   -5097.0000  8.06011E+02  170.000  0.00000E+00  1.00000E+00  0.87977  9.2683  5.2221E+01 -2.5344E-02  2.6680E+00  3.8538E+00  1.5767E-03  1.5253E-01  4.3653E-01  3.8577E-06  3.0259E-05  2.1705E-04  9.7420E-06  6.5425E-04
       0.1450       0.0500   -5097.0000  8.06011E+02  170.000  0.00000E+00  1.00000E+00  0.87977  9.2683  5.2221E+01 -2.5344E-02  2.6680E+00  3.8538E+00  1.5767E-03  1.5253E-01  4.3653E-01  3.8577E-06  3.0259E-05  2.1705E-04  9.7420E-06  6.5425E-04
       0.1550       0.0500   -5097.0000  8.06011E+02  170.000  0.00000E+00  1.00000E+00  0.87977  9.2683  5.2221E+01 -2.5344E-02  2.6680E+00  3.8538E+00  1.5767E-03  1.5253E-01  4.3653E-01  3.8577E-06  3.0259E-05  2.1705E-04  9.7420E-06  6.5425E-04
       0.1650       0.0500   -5097.0000  8.06011E+02  170.000  0.00000E+00  1.00000E+00  0.87977  9.2683  5.2221E+01 -2.5344E-02  2.6680E+00  3.8538E+00  1.5767E-03  1.5253E-01  4.3653E-01  3.8577E-06  3.0259E-05  2.1705E-04  9.7420E-06  6.5425E-04
       0.1750       0.0500   -5097.0000  8.06011E+02  170.000  0.00000E+00  1.00000E+00  0.87977  9.2683  5.2221E+01 -2.5344E-02  2.6680E+00  3.8538E+00  1.5767E-03  1.5253E-01  4.3653E-01  3.8577E-06  3.0259E-05  2.1705E-04  9.7420E-06  6.5425E-04
       0.1850       0.0500   -5097.0000  8.06011E+02  170.000  0.00000E+00  1.00000E+00  0.87977  9.2683  5.2221E+01 -2.5344E-02  2.6680E+00  3.8538E+00  1.5767E-03  1.5253E-01  4.3653E-01  3.8577E-06  3.0259E-05  2.1705E-04  9.7420E-06  6.5425E-04
       0.1950       0.0500   -5097.0000  8.06011E+02  170.000  0.00000E+00  1.00000E+00  0.87977  9.2683  5.2221E+01 -2.5344E-02  2.6680E+00  3.8538E+00  1.5767E-03  1.5253E-01  4.3653E-01  3.8577E-06  3.0259E-05  2.1705E-04  9.7420E-06  6.5425E-04
       0.2050       0.0500   -5097.0000  8.06011E+02  170.000  0.00000E+00  1.00000E+00  0.87977  9.2683  5.2221E+01 -2.5344E-02  2.6680E+00  3.8538E+00  1.5767E-03  1.5253E-01  4.3653E-01  3.8577E-06  3.0259E-05  2.1705E-04  9.7420E-06  6.5425E-04
       0.2150       0.0500   -5097.0000  8.06011E+02  170.000  0.00000E+00  1.00000E+00  0.87977  9.2683  5.2221E+01 -2.5344E-02  2.6680E+00  3.8538E+00  1.5767E-03  1.5253E-01  4.3653E-01  3.8577E-06  3.0259E-05  2.1705E-04  9.7420E-06  6.5425E-04
       0.2250       0.0500   -5097.0000  8.06011E+02  170.000  0.00000E+00  1.00000E+00  0.87977  9.2683  5.2221E+01 -2.5344E-02  2.6680E+00  3.8538E+00  1.5767E-03  1.5253E-01  4.3653E-01  3.8577E-06  3.0259E-05  2.1705E-04  9.7420E-06  6.5425E-04
       0.2350       0.0500   -5097.0000  8.06011E+02  170.000  0.00000E+00  1.00000E+00  0.87977  9.2683  5.2221E+01 -2.5344E-02  2.6680E+00  3.8538E+00  1.5767E-03  1.5253E-01  4.3653E-01  3.8577E-06  3.0259E-05  2.1705E-04  9.7420E-06  6.5425E-04
       0.2450       0.0500   -5097.0000  8.06011E+02  170.000  0.00000E+00  1.00000E+00  0.87977  9.2683  5.2221E+01 -2.5344E-02  2.6680E+00  3.8538E+00  1.5767E-03  1.5253E-01  4.3653E-01  3.8577E-06  3.0259E-05  2.1705E-04  9.7420E-06  6.5425E-04
       0.0050       0.0500   -5099.0000  8.06012E+02  170.000  0.00000E+00  1.00000E+00  0.87977  9.2683  5.2221E+01 -2.5344E-02  2.6680E+00  3.8538E+00  1.5767E-03  1.5253E-01  4.3653E-01  3.8577E-06  3.0259E-05  2.1705E-04  9.7420E-06  6.5425E-04
       0.0150       0.0500   -5099.0000  8.06012E+02  170.000  0.00000E+00  1.00000E+00  0.87977  9.2683  5.2221E+01 -2.5344E-02  2.6680E+00  3.8538E+00  1.5767E-03  1.5253E-01  4.3653E-01  3.8577E-06  3.0259E-05  2.1705E-04  9.7420E-06  6.5425E-04
       0.0250       0.0500   -5099.0000  8.06012E+02  170.000  0.00000E+00  1.00000E+00  0.87977  9.2683  5.2221E+01 -2.5344E-02  2.6680E+00  3.8538E+00  1.5767E-03  1.5253E-01  4.3653E-01  3.8577E-06  3.0259E-05  2.1705E-04  9.7420E-06  6.5425E-04
       0.0350       0.0500   -5099.0000  8.06012E+02  170.000  0.00000E+00  1.00000E+00  0.87977  9.2683  5.2221E+01 -2.5344E-02  2.6680E+00  3.8538E+00  1.5767E-03  1.5253E-01  4.3653E-01  3.8577E-06  3.0259E-05  2.1705E-04  9.7420E-06  6.5425E-04
       0.0450       0.0500   -5099.0000  8.06012E+02  170.000  0.00000E+00  1.00000E+00  0.87977  9.2683  5.2221E+01 -2.5344E-02  2.6680E+00  3.8538E+00  1.5767E-03  1.5253E-01  4.3653E-01  3.8577E-06  3.0259E-05  2.1705E-04  9.7420E-06  6.5425E-04
       0.0550       0.0500   -5099.0000  8.06012E+02  170.000  0.00000E+00  1.00000E+00  0.87977  9.2683  5.2221E+01 -2.5344E-02  2.6680E+00  3.8538E+00  1.5767E-03  1.5253E-01  4.3653E-01  3.8577E-06  3.0259E-05  2.1705E-04  9.7420E-06  6.5425E-04
       0.0650       0.0500   -5099.0000  8.06012E+02  170.000  0.00000E+00  1.00000E+00  0.87977  9.2683  5.2221E+01 -2.5344E-02  2.6680E+00  3.8538E+00  1.5767E-03  1.5253E-01  4.3653E-01  3.8577E-06  3.0259E-05  2.1705E-04  9.7420E-06  6.5425E-04
       0.0750       0.0500   -5099.0000  8.06012E+02  170.000  0.00000E+00  1.00000E+00  0.87977  9.2683  5.2221E+01 -2.5344E-02  2.6680E+00  3.8538E+00  1.5767E-03  1.5253E-01  4.3653E-01  3.8577E-06  3.0259E-05  2.1705E-04  9.7420E-06  6.5425E-04
       0.0850       0.0500   -5099.0000  8.06012E+02  170.000  0.00000E+00  1.00000E+00  0.87977  9.2683  5.2221E+01 -2.5344E-02  2.6680E+00  3.8538E+00  1.5767E-03  1.5253E-01  4.3653E-01  3.8577E-06  3.0259E-05  2.1705E-04  9.7420E-06  6.5425E-04
       0.0950       0.0500   -5099.0000  8.06012E+02  170.000  0.00000E+00  1.00000E+00  0.87977  9.2683  5.2221E+01 -2.5344E-02  2.6680E+00  3.8538E+00  1.5767E-03  1.5253E-01  4.3653E-01  3.8577E-06  3.0259E-05  2.1705E-04  9.7420E-06  6.5425E-04
       0.1050       0.0500   -5099.0000  8.06012E+02  170.000  0.00000E+00  1.00000E+00  0.87977  9.2683  5.2221E+01 -2.5344E-02  2.6680E+00  3.8538E+00  1.5767E-03  1.5253E-01  4.3653E-01  3.8577E-06  3.0259E-05  2.1705E-04  9.7420E-06  6.5425E-04
       0.1150       0.0500   -5099.0000  8.06012E+02  170.000  0.00000E+00  1.00000E+00  0.87977  9.2683  5.2221E+01 -2.5344E-02  2.6680E+00  3.8538E+00  1.5767E-03  1.5253E-01  4.3653E-01  3.8577E-06  3.0259E-05  2.1705E-04  9.7420E-06  6.5425E-04
       0.1250       0.0500   -5099.0000  8.06012E+02  170.000  0.00000E+00  1.00000E+00  0.87977  9.2683  5.2221E+01 -2.5344E-02  2.6680E+00  3.8538E+00  1.5767E-03  1.5253E-01  4.3653E-01  3.8577E-06  3.0259E-05  2.1705E-04  9.7420E-06  6.5425E-04
       0.1350       0.0500   -5099.0000  8.06012E+02  170.000  0.00000E+00  1.00000E+00  0.87977  9.2683  5.2221E+01 -2.5344E-02  2.6680E+00  3.8538E+00  1.5767E-03  1.5253E-01  4.3653E-01  3.8577E-06  3.0259E-05  2.1705E-04  9.7420E-06  6.5425E-04
       0.1450       0.0500   -5099.0000  8.06012E+02  170.000  0.00000E+00  1.00000E+00  0.87977  9.2683  5.2221E+01 -2.5344E-02  2.6680E+00  3.8538E+00  1.5767E-03  1.5253E-01  4.3653E-01  3.8577E-06  3.0259E-05  2.1705E-04  9.7420E-06  6.5425E-04
       0.1550       0.0500   -5099.0000  8.06012E+02  170.000  0.00000E+00  1.00000E+00  0.87977  9.2683  5.2221E+01 -2.5344E-02  2.6680E+00  3.8538E+00  1.5767E-03  1.5253E-01  4.3653E-01  3.8577E-06  3.0259E-05  2.1705E-04  9.7420E-06  6.5425E-04
       0.1650       0.0500   -5099.0000  8.06012E+02  170.000  0.00000E+00  1.00000E+00  0.87977  9.2683  5.2221E+01 -2.5344E-02  2.6680E+00  3.8538E+00  1.5767E-03  1.5253E-01  4.3653E-01  3.8577E-06  3.0259E-05  2.1705E-04  9.7420E-06  6.5425E-04
       0.1750       0.0500   -5099.0000  8.06012E+02  170.000  0.00000E+00  1.00000E+00  0.87977  9.2683  5.2221E+01 -2.5344E-02  2.6680E+00  3.8538E+00  1.5767E-03  1.5253E-01  4.3653E-01  3.8577E-06  3.0259E-05  2.1705E-04  9.7420E-06  6.5425E-04