Title="TOUGHREACT V3.60demo: Mineral Abundances (Total or Changes) and/or Exchanged Species:            Change in volume fraction"
Variables= "X(m)"   "Y(m)"   "Z(m)"       "T(C)"   "Porosity"  "Poros_Chg" "Permx(m^2)"     "Kx/Kx0" "Permz(m^2)"     "Kz/Kz0" "quartz(alpha"   "microcline"  "albite(low)" "muscovite(or" "chlorite(cca"     "dolomite"      "calcite"
Zone T= "0.00000000E+00 sec" I=      12 J=       1 K=       1 F=Point
       1.5000       0.0500    -101.0000  170.000  0.12000  0.00000E+00  6.51000E-17  1.0000E+00  6.51000E-17  1.0000E+00  0.0000E+00  0.0000E+00  0.0000E+00  0.0000E+00  0.0000E+00  0.0000E+00  0.0000E+00
       4.5000       0.0500    -101.0000  170.000  0.12000  0.00000E+00  6.51000E-17  1.0000E+00  6.51000E-17  1.0000E+00  0.0000E+00  0.0000E+00  0.0000E+00  0.0000E+00  0.0000E+00  0.0000E+00  0.0000E+00
       7.5000       0.0500    -101.0000  170.000  0.12000  0.00000E+00  6.51000E-17  1.0000E+00  6.51000E-17  1.0000E+00  0.0000E+00  0.0000E+00  0.0000E+00  0.0000E+00  0.0000E+00  0.0000E+00  0.0000E+00
       1.5000       0.0500    -103.0000  170.000  0.12000  0.00000E+00  6.51000E-17  1.0000E+00  6.51000E-17  1.0000E+00  0.0000E+00  0.0000E+00  0.0000E+00  0.0000E+00  0.0000E+00  0.0000E+00  0.0000E+00
       4.5000       0.0500    -103.0000  170.000  0.12000  0.00000E+00  6.51000E-17  1.0000E+00  6.51000E-17  1.0000E+00  0.0000E+00  0.0000E+00  0.0000E+00  0.0000E+00  0.0000E+00  0.0000E+00  0.0000E+00
       7.5000       0.0500    -103.0000  170.000  0.12000  0.00000E+00  6.51000E-17  1.0000E+00  6.51000E-17  1.0000E+00  0.0000E+00  0.0000E+00  0.0000E+00  0.0000E+00  0.0000E+00  0.0000E+00  0.0000E+00
       1.5000       0.0500    -105.0000  170.000  0.12000  0.00000E+00  6.51000E-17  1.0000E+00  6.51000E-17  1.0000E+00  0.0000E+00  0.0000E+00  0.0000E+00  0.0000E+00  0.0000E+00  0.0000E+00  0.0000E+00
       4.5000       0.0500    -105.0000  170.000  0.12000  0.00000E+00  6.51000E-17  1.0000E+00  6.51000E-17  1.0000E+00  0.0000E+00  0.0000E+00  0.0000E+00  0.0000E+00  0.0000E+00  0.0000E+00  0.0000E+00
       7.5000       0.0500    -105.0000  170.000  0.12000  0.00000E+00  6.51000E-17  1.0000E+00  6.51000E-17  1.0000E+00  0.0000E+00  0.0000E+00  0.0000E+00  0.0000E+00  0.0000E+00  0.0000E+00  0.0000E+00
       1.5000       0.0500    -107.0000  170.000  0.12000  0.00000E+00  6.51000E-17  1.0000E+00  6.51000E-17  1.0000E+00  0.0000E+00  0.0000E+00  0.0000E+00  0.0000E+00  0.0000E+00  0.0000E+00  0.0000E+00
       4.5000       0.0500    -107.0000  170.000  0.12000  0.00000E+00  6.51000E-17  1.0000E+00  6.51000E-17  1.0000E+00  0.0000E+00  0.0000E+00  0.0000E+00  0.0000E+00  0.0000E+00  0.0000E+00  0.0000E+00
       7.5000       0.0500    -107.0000  170.000  0.12000  0.00000E+00  6.51000E-17  1.0000E+00  6.51000E-17  1.0000E+00  0.0000E+00  0.0000E+00  0.0000E+00  0.0000E+00  0.0000E+00  0.0000E+00  0.0000E+00
Zone T= "1.72800000E+07 sec" I=      12 J=       1 K=       1 F=Point
       1.5000       0.0500    -101.0000  170.000  0.12000  1.63356E-07  6.51003E-17  1.0000E+00  6.51003E-17  1.0000E+00  0.0000E+00 -1.8785E-06  1.7001E-06  3.2902E-09  1.8419E-08 -2.5146E-08  1.8465E-08
       4.5000       0.0500    -101.0000  170.000  0.12000  1.63356E-07  6.51003E-17  1.0000E+00  6.51003E-17  1.0000E+00  0.0000E+00 -1.8785E-06  1.7001E-06  3.2902E-09  1.8419E-08 -2.5146E-08  1.8465E-08
       7.5000       0.0500    -101.0000  170.000  0.12000  1.63356E-07  6.51003E-17  1.0000E+00  6.51003E-17  1.0000E+00  0.0000E+00 -1.8785E-06  1.7001E-06  3.2902E-09  1.8419E-08 -2.5146E-08  1.8465E-08
       1.5000       0.0500    -103.0000  170.000  0.12000  1.63357E-07  6.51003E-17  1.0000E+00  6.51003E-17  1.0000E+00  0.0000E+00 -1.8785E-06  1.7001E-06  3.2901E-09  1.8420E-08 -2.5146E-08  1.8465E-08
       4.5000       0.0500    -103.0000  170.000  0.12000  1.63357E-07  6.51003E-17  1.0000E+00  6.51003E-17  1.0000E+00  0.0000E+00 -1.8785E-06  1.7001E-06  3.2901E-09  1.8420E-08 -2.5146E-08  1.8465E-08
       7.5000       0.0500    -103.0000  170.000  0.12000  1.63357E-07  6.51003E-17  1.0000E+00  6.51003E-17  1.0000E+00  0.0000E+00 -1.8785E-06  1.7001E-06  3.2901E-09  1.8420E-08 -2.5146E-08  1.8465E-08
       1.5000       0.0500    -105.0000  170.000  0.12000  1.63357E-07  6.51003E-17  1.0000E+00  6.51003E-17  1.0000E+00  0.0000E+00 -1.8785E-06  1.7001E-06  3.2901E-09  1.8420E-08 -2.5147E-08  1.8465E-08
       4.5000       0.0500    -105.0000  170.000  0.12000  1.63357E-07  6.51003E-17  1.0000E+00  6.51003E-17  1.0000E+00  0.0000E+00 -1.8785E-06  1.7001E-06  3.2901E-09  1.8420E-08 -2.5147E-08  1.8465E-08
       7.5000       0.0500    -105.0000  170.000  0.12000  1.63357E-07  6.51003E-17  1.0000E+00  6.51003E-17  1.0000E+00  0.0000E+00 -1.8785E-06  1.7001E-06  3.2901E-09  1.8420E-08 -2.5147E-08  1.8465E-08
       1.5000       0.0500    -107.0000  170.000  0.12000  1.63357E-07  6.51003E-17  1.0000E+00  6.51003E-17  1.0000E+00  0.0000E+00 -1.8785E-06  1.7001E-06  3.2901E-09  1.8420E-08 -2.5147E-08  1.8466E-08
       4.5000       0.0500    -107.0000  170.000  0.12000  1.63357E-07  6.51003E-17  1.0000E+00  6.51003E-17  1.0000E+00  0.0000E+00 -1.8785E-06  1.7001E-06  3.2901E-09  1.8420E-08 -2.5147E-08  1.8466E-08
       7.5000       0.0500    -107.0000  170.000  0.12000  1.63357E-07  6.51003E-17  1.0000E+00  6.51003E-17  1.0000E+00  0.0000E+00 -1.8785E-06  1.7001E-06  3.2901E-09  1.8420E-08 -2.5147E-08  1.8466E-08
Zone T= "3.15400000E+07 sec" I=      12 J=       1 K=       1 F=Point
       1.5000       0.0500    -101.0000  170.000  0.12000  2.85902E-07  6.51005E-17  1.0000E+00  6.51005E-17  1.0000E+00  0.0000E+00 -3.4154E-06  3.1131E-06  4.7847E-09  1.6864E-08 -2.4420E-08  1.9156E-08
       4.5000       0.0500    -101.0000  170.000  0.12000  2.85902E-07  6.51005E-17  1.0000E+00  6.51005E-17  1.0000E+00  0.0000E+00 -3.4154E-06  3.1131E-06  4.7847E-09  1.6864E-08 -2.4420E-08  1.9156E-08
       7.5000       0.0500    -101.0000  170.000  0.12000  2.85902E-07  6.51005E-17  1.0000E+00  6.51005E-17  1.0000E+00  0.0000E+00 -3.4154E-06  3.1131E-06  4.7847E-09  1.6864E-08 -2.4420E-08  1.9156E-08
       1.5000       0.0500    -103.0000  170.000  0.12000  2.85902E-07  6.51005E-17  1.0000E+00  6.51005E-17  1.0000E+00  0.0000E+00 -3.4154E-06  3.1131E-06  4.7845E-09  1.6865E-08 -2.4421E-08  1.9157E-08
       4.5000       0.0500    -103.0000  170.000  0.12000  2.85902E-07  6.51005E-17  1.0000E+00  6.51005E-17  1.0000E+00  0.0000E+00 -3.4154E-06  3.1131E-06  4.7845E-09  1.6865E-08 -2.4421E-08  1.9157E-08
       7.5000       0.0500    -103.0000  170.000  0.12000  2.85902E-07  6.51005E-17  1.0000E+00  6.51005E-17  1.0000E+00  0.0000E+00 -3.4154E-06  3.1131E-06  4.7845E-09  1.6865E-08 -2.4421E-08  1.9157E-08
       1.5000       0.0500    -105.0000  170.000  0.12000  2.85903E-07  6.51005E-17  1.0000E+00  6.51005E-17  1.0000E+00  0.0000E+00 -3.4154E-06  3.1131E-06  4.7846E-09  1.6865E-08 -2.4421E-08  1.9157E-08
       4.5000       0.0500    -105.0000  170.000  0.12000  2.85903E-07  6.51005E-17  1.0000E+00  6.51005E-17  1.0000E+00  0.0000E+00 -3.4154E-06  3.1131E-06  4.7846E-09  1.6865E-08 -2.4421E-08  1.9157E-08
       7.5000       0.0500    -105.0000  170.000  0.12000  2.85903E-07  6.51005E-17  1.0000E+00  6.51005E-17  1.0000E+00  0.0000E+00 -3.4154E-06  3.1131E-06  4.7846E-09  1.6865E-08 -2.4421E-08  1.9157E-08
       1.5000       0.0500    -107.0000  170.000  0.12000  2.85903E-07  6.51005E-17  1.0000E+00  6.51005E-17  1.0000E+00  0.0000E+00 -3.4154E-06  3.1131E-06  4.7846E-09  1.6865E-08 -2.4421E-08  1.9157E-08
       4.5000       0.0500    -107.0000  170.000  0.12000  2.85903E-07  6.51005E-17  1.0000E+00  6.51005E-17  1.0000E+00  0.0000E+00 -3.4154E-06  3.1131E-06  4.7846E-09  1.6865E-08 -2.4421E-08  1.9157E-08
       7.5000       0.0500    -107.0000  170.000  0.12000  2.85903E-07  6.51005E-17  1.0000E+00  6.51005E-17  1.0000E+00  0.0000E+00 -3.4154E-06  3.1131E-06  4.7846E-09  1.6865E-08 -2.4421E-08  1.9157E-08
