Title="TOUGHREACT V3.60demo: Aqueous Total & Species Concentrations in      mol/L, Surface & Exchanged Species in      mol/L, Dry blocks in mol/L medium"
Variables= "X(m)"   "Y(m)"   "Z(m)"   "P(bar)"     "T(C)"   "SatGas"   "SatLiq"     "aH2O"       "pH"        "t_h2o"         "t_h+"        "t_na+"        "t_cl-"      "t_hco3-"       "t_ca+2"      "t_so4-2"       "t_mg+2"     "t_h4sio4"       "t_al+3"       "t_fe+2"        "t_hs-"         "t_k+"
Zone T= "0.00000000E+00 sec" I=      12 J=       1 K=       1 F=Point
       1.5000       0.0500    -101.0000  8.05765E+02  170.000  0.00000E+00  1.00000E+00  0.89444  5.3660  5.2221E+01  1.3759E-02  2.1446E+00  3.8510E+00  1.6033E-02  5.2695E-01  8.5554E-05  7.4279E-02  2.7557E-03  4.7856E-08  1.0637E-02  4.2957E-07  4.9606E-01
       4.5000       0.0500    -101.0000  8.05765E+02  170.000  0.00000E+00  1.00000E+00  0.89444  5.3660  5.2221E+01  1.3759E-02  2.1446E+00  3.8510E+00  1.6033E-02  5.2695E-01  8.5554E-05  7.4279E-02  2.7557E-03  4.7856E-08  1.0637E-02  4.2957E-07  4.9606E-01
       7.5000       0.0500    -101.0000  8.05765E+02  170.000  0.00000E+00  1.00000E+00  0.89444  5.3660  5.2221E+01  1.3759E-02  2.1446E+00  3.8510E+00  1.6033E-02  5.2695E-01  8.5554E-05  7.4279E-02  2.7557E-03  4.7856E-08  1.0637E-02  4.2957E-07  4.9606E-01
       1.5000       0.0500    -103.0000  8.05931E+02  170.000  0.00000E+00  1.00000E+00  0.89444  5.3660  5.2221E+01  1.3759E-02  2.1446E+00  3.8510E+00  1.6033E-02  5.2695E-01  8.5554E-05  7.4279E-02  2.7557E-03  4.7856E-08  1.0637E-02  4.2957E-07  4.9606E-01
       4.5000       0.0500    -103.0000  8.05931E+02  170.000  0.00000E+00  1.00000E+00  0.89444  5.3660  5.2221E+01  1.3759E-02  2.1446E+00  3.8510E+00  1.6033E-02  5.2695E-01  8.5554E-05  7.4279E-02  2.7557E-03  4.7856E-08  1.0637E-02  4.2957E-07  4.9606E-01
       7.5000       0.0500    -103.0000  8.05931E+02  170.000  0.00000E+00  1.00000E+00  0.89444  5.3660  5.2221E+01  1.3759E-02  2.1446E+00  3.8510E+00  1.6033E-02  5.2695E-01  8.5554E-05  7.4279E-02  2.7557E-03  4.7856E-08  1.0637E-02  4.2957E-07  4.9606E-01
       1.5000       0.0500    -105.0000  8.06091E+02  170.000  0.00000E+00  1.00000E+00  0.89444  5.3660  5.2221E+01  1.3759E-02  2.1446E+00  3.8510E+00  1.6033E-02  5.2695E-01  8.5554E-05  7.4279E-02  2.7557E-03  4.7856E-08  1.0637E-02  4.2957E-07  4.9606E-01
       4.5000       0.0500    -105.0000  8.06091E+02  170.000  0.00000E+00  1.00000E+00  0.89444  5.3660  5.2221E+01  1.3759E-02  2.1446E+00  3.8510E+00  1.6033E-02  5.2695E-01  8.5554E-05  7.4279E-02  2.7557E-03  4.7856E-08  1.0637E-02  4.2957E-07  4.9606E-01
       7.5000       0.0500    -105.0000  8.06091E+02  170.000  0.00000E+00  1.00000E+00  0.89444  5.3660  5.2221E+01  1.3759E-02  2.1446E+00  3.8510E+00  1.6033E-02  5.2695E-01  8.5554E-05  7.4279E-02  2.7557E-03  4.7856E-08  1.0637E-02  4.2957E-07  4.9606E-01
       1.5000       0.0500    -107.0000  8.06258E+02  170.000  0.00000E+00  1.00000E+00  0.89444  5.3660  5.2221E+01  1.3759E-02  2.1446E+00  3.8510E+00  1.6033E-02  5.2695E-01  8.5554E-05  7.4279E-02  2.7557E-03  4.7856E-08  1.0637E-02  4.2957E-07  4.9606E-01
       4.5000       0.0500    -107.0000  8.06258E+02  170.000  0.00000E+00  1.00000E+00  0.89444  5.3660  5.2221E+01  1.3759E-02  2.1446E+00  3.8510E+00  1.6033E-02  5.2695E-01  8.5554E-05  7.4279E-02  2.7557E-03  4.7856E-08  1.0637E-02  4.2957E-07  4.9606E-01
       7.5000       0.0500    -107.0000  8.06258E+02  170.000  0.00000E+00  1.00000E+00  0.89444  5.3660  5.2221E+01  1.3759E-02  2.1446E+00  3.8510E+00  1.6033E-02  5.2695E-01  8.5554E-05  7.4279E-02  2.7557E-03  4.7856E-08  1.0637E-02  4.2957E-07  4.9606E-01
Zone T= "1.72800000E+07 sec" I=      12 J=       1 K=       1 F=Point
       1.5000       0.0500    -101.0000  8.05735E+02  170.000  0.00000E+00  1.00000E+00  0.89444  5.3660  5.2234E+01  1.3762E-02  2.1445E+00  3.8509E+00  1.6036E-02  5.2694E-01  8.5534E-05  7.4279E-02  2.7603E-03  4.7806E-08  1.0636E-02  4.4905E-07  4.9620E-01
       4.5000       0.0500    -101.0000  8.05735E+02  170.000  0.00000E+00  1.00000E+00  0.89444  5.3660  5.2234E+01  1.3762E-02  2.1445E+00  3.8509E+00  1.6036E-02  5.2694E-01  8.5534E-05  7.4279E-02  2.7603E-03  4.7806E-08  1.0636E-02  4.4905E-07  4.9620E-01
       7.5000       0.0500    -101.0000  8.05735E+02  170.000  0.00000E+00  1.00000E+00  0.89444  5.3660  5.2234E+01  1.3762E-02  2.1445E+00  3.8509E+00  1.6036E-02  5.2694E-01  8.5534E-05  7.4279E-02  2.7603E-03  4.7806E-08  1.0636E-02  4.4905E-07  4.9620E-01
       1.5000       0.0500    -103.0000  8.05919E+02  170.000  0.00000E+00  1.00000E+00  0.89444  5.3660  5.2235E+01  1.3762E-02  2.1445E+00  3.8510E+00  1.6036E-02  5.2694E-01  8.5534E-05  7.4280E-02  2.7603E-03  4.7806E-08  1.0636E-02  4.4906E-07  4.9620E-01
       4.5000       0.0500    -103.0000  8.05919E+02  170.000  0.00000E+00  1.00000E+00  0.89444  5.3660  5.2235E+01  1.3762E-02  2.1445E+00  3.8510E+00  1.6036E-02  5.2694E-01  8.5534E-05  7.4280E-02  2.7603E-03  4.7806E-08  1.0636E-02  4.4906E-07  4.9620E-01
       7.5000       0.0500    -103.0000  8.05919E+02  170.000  0.00000E+00  1.00000E+00  0.89444  5.3660  5.2235E+01  1.3762E-02  2.1445E+00  3.8510E+00  1.6036E-02  5.2694E-01  8.5534E-05  7.4280E-02  2.7603E-03  4.7806E-08  1.0636E-02  4.4906E-07  4.9620E-01
       1.5000       0.0500    -105.0000  8.06104E+02  170.000  0.00000E+00  1.00000E+00  0.89444  5.3660  5.2235E+01  1.3762E-02  2.1445E+00  3.8510E+00  1.6036E-02  5.2695E-01  8.5535E-05  7.4281E-02  2.7603E-03  4.7807E-08  1.0636E-02  4.4906E-07  4.9621E-01
       4.5000       0.0500    -105.0000  8.06104E+02  170.000  0.00000E+00  1.00000E+00  0.89444  5.3660  5.2235E+01  1.3762E-02  2.1445E+00  3.8510E+00  1.6036E-02  5.2695E-01  8.5535E-05  7.4281E-02  2.7603E-03  4.7807E-08  1.0636E-02  4.4906E-07  4.9621E-01
       7.5000       0.0500    -105.0000  8.06104E+02  170.000  0.00000E+00  1.00000E+00  0.89444  5.3660  5.2235E+01  1.3762E-02  2.1445E+00  3.8510E+00  1.6036E-02  5.2695E-01  8.5535E-05  7.4281E-02  2.7603E-03  4.7807E-08  1.0636E-02  4.4906E-07  4.9621E-01
       1.5000       0.0500    -107.0000  8.06288E+02  170.000  0.00000E+00  1.00000E+00  0.89444  5.3660  5.2236E+01  1.3762E-02  2.1445E+00  3.8510E+00  1.6036E-02  5.2695E-01  8.5536E-05  7.4281E-02  2.7604E-03  4.7807E-08  1.0636E-02  4.4907E-07  4.9621E-01
       4.5000       0.0500    -107.0000  8.06288E+02  170.000  0.00000E+00  1.00000E+00  0.89444  5.3660  5.2236E+01  1.3762E-02  2.1445E+00  3.8510E+00  1.6036E-02  5.2695E-01  8.5536E-05  7.4281E-02  2.7604E-03  4.7807E-08  1.0636E-02  4.4907E-07  4.9621E-01
       7.5000       0.0500    -107.0000  8.06288E+02  170.000  0.00000E+00  1.00000E+00  0.89444  5.3660  5.2236E+01  1.3762E-02  2.1445E+00  3.8510E+00  1.6036E-02  5.2695E-01  8.5536E-05  7.4281E-02  2.7604E-03  4.7807E-08  1.0636E-02  4.4907E-07  4.9621E-01
Zone T= "3.15400000E+07 sec" I=      12 J=       1 K=       1 F=Point
       1.5000       0.0500    -101.0000  8.05735E+02  170.000  0.00000E+00  1.00000E+00  0.89444  5.3660  5.2234E+01  1.3761E-02  2.1444E+00  3.8509E+00  1.6035E-02  5.2694E-01  8.5535E-05  7.4280E-02  2.7605E-03  4.7798E-08  1.0636E-02  4.4740E-07  4.9631E-01
       4.5000       0.0500    -101.0000  8.05735E+02  170.000  0.00000E+00  1.00000E+00  0.89444  5.3660  5.2234E+01  1.3761E-02  2.1444E+00  3.8509E+00  1.6035E-02  5.2694E-01  8.5535E-05  7.4280E-02  2.7605E-03  4.7798E-08  1.0636E-02  4.4740E-07  4.9631E-01
       7.5000       0.0500    -101.0000  8.05735E+02  170.000  0.00000E+00  1.00000E+00  0.89444  5.3660  5.2234E+01  1.3761E-02  2.1444E+00  3.8509E+00  1.6035E-02  5.2694E-01  8.5535E-05  7.4280E-02  2.7605E-03  4.7798E-08  1.0636E-02  4.4740E-07  4.9631E-01
       1.5000       0.0500    -103.0000  8.05919E+02  170.000  0.00000E+00  1.00000E+00  0.89444  5.3660  5.2235E+01  1.3762E-02  2.1444E+00  3.8510E+00  1.6035E-02  5.2694E-01  8.5536E-05  7.4280E-02  2.7605E-03  4.7799E-08  1.0636E-02  4.4741E-07  4.9632E-01
       4.5000       0.0500    -103.0000  8.05919E+02  170.000  0.00000E+00  1.00000E+00  0.89444  5.3660  5.2235E+01  1.3762E-02  2.1444E+00  3.8510E+00  1.6035E-02  5.2694E-01  8.5536E-05  7.4280E-02  2.7605E-03  4.7799E-08  1.0636E-02  4.4741E-07  4.9632E-01
       7.5000       0.0500    -103.0000  8.05919E+02  170.000  0.00000E+00  1.00000E+00  0.89444  5.3660  5.2235E+01  1.3762E-02  2.1444E+00  3.8510E+00  1.6035E-02  5.2694E-01  8.5536E-05  7.4280E-02  2.7605E-03  4.7799E-08  1.0636E-02  4.4741E-07  4.9632E-01
       1.5000       0.0500    -105.0000  8.06104E+02  170.000  0.00000E+00  1.00000E+00  0.89444  5.3660  5.2235E+01  1.3762E-02  2.1444E+00  3.8510E+00  1.6035E-02  5.2695E-01  8.5537E-05  7.4281E-02  2.7606E-03  4.7799E-08  1.0636E-02  4.4741E-07  4.9632E-01
       4.5000       0.0500    -105.0000  8.06104E+02  170.000  0.00000E+00  1.00000E+00  0.89444  5.3660  5.2235E+01  1.3762E-02  2.1444E+00  3.8510E+00  1.6035E-02  5.2695E-01  8.5537E-05  7.4281E-02  2.7606E-03  4.7799E-08  1.0636E-02  4.4741E-07  4.9632E-01
       7.5000       0.0500    -105.0000  8.06104E+02  170.000  0.00000E+00  1.00000E+00  0.89444  5.3660  5.2235E+01  1.3762E-02  2.1444E+00  3.8510E+00  1.6035E-02  5.2695E-01  8.5537E-05  7.4281E-02  2.7606E-03  4.7799E-08  1.0636E-02  4.4741E-07  4.9632E-01
       1.5000       0.0500    -107.0000  8.06288E+02  170.000  0.00000E+00  1.00000E+00  0.89444  5.3660  5.2236E+01  1.3762E-02  2.1444E+00  3.8510E+00  1.6036E-02  5.2695E-01  8.5538E-05  7.4282E-02  2.7606E-03  4.7800E-08  1.0636E-02  4.4742E-07  4.9633E-01
       4.5000       0.0500    -107.0000  8.06288E+02  170.000  0.00000E+00  1.00000E+00  0.89444  5.3660  5.2236E+01  1.3762E-02  2.1444E+00  3.8510E+00  1.6036E-02  5.2695E-01  8.5538E-05  7.4282E-02  2.7606E-03  4.7800E-08  1.0636E-02  4.4742E-07  4.9633E-01
       7.5000       0.0500    -107.0000  8.06288E+02  170.000  0.00000E+00  1.00000E+00  0.89444  5.3660  5.2236E+01  1.3762E-02  2.1444E+00  3.8510E+00  1.6036E-02  5.2695E-01  8.5538E-05  7.4282E-02  2.7606E-03  4.7800E-08  1.0636E-02  4.4742E-07  4.9633E-01
