Title="TOUGHREACT V3.60demo: Gas Species Concentrations: Mole fraction"
Variables= "X(m)"   "Y(m)"   "Z(m)"     "P(bar)"       "T(C)"     "SatGas"         "RH"       "co2(g)"
Zone T= "0.00000000E+00 sec" I=      12 J=       1 K=       1 F=Point
       1.5000       0.0500    -101.0000  8.05765E+02  170.000  0.00000E+00  1.0000  1.1188E-02
       4.5000       0.0500    -101.0000  8.05765E+02  170.000  0.00000E+00  1.0000  1.1188E-02
       7.5000       0.0500    -101.0000  8.05765E+02  170.000  0.00000E+00  1.0000  1.1188E-02
       1.5000       0.0500    -103.0000  8.05931E+02  170.000  0.00000E+00  1.0000  1.1186E-02
       4.5000       0.0500    -103.0000  8.05931E+02  170.000  0.00000E+00  1.0000  1.1186E-02
       7.5000       0.0500    -103.0000  8.05931E+02  170.000  0.00000E+00  1.0000  1.1186E-02
       1.5000       0.0500    -105.0000  8.06091E+02  170.000  0.00000E+00  1.0000  1.1184E-02
       4.5000       0.0500    -105.0000  8.06091E+02  170.000  0.00000E+00  1.0000  1.1184E-02
       7.5000       0.0500    -105.0000  8.06091E+02  170.000  0.00000E+00  1.0000  1.1184E-02
       1.5000       0.0500    -107.0000  8.06258E+02  170.000  0.00000E+00  1.0000  1.1181E-02
       4.5000       0.0500    -107.0000  8.06258E+02  170.000  0.00000E+00  1.0000  1.1181E-02
       7.5000       0.0500    -107.0000  8.06258E+02  170.000  0.00000E+00  1.0000  1.1181E-02
Zone T= "1.72800000E+07 sec" I=      12 J=       1 K=       1 F=Point
       1.5000       0.0500    -101.0000  8.05735E+02  170.000  0.00000E+00  1.0000  1.1190E-02
       4.5000       0.0500    -101.0000  8.05735E+02  170.000  0.00000E+00  1.0000  1.1190E-02
       7.5000       0.0500    -101.0000  8.05735E+02  170.000  0.00000E+00  1.0000  1.1190E-02
       1.5000       0.0500    -103.0000  8.05919E+02  170.000  0.00000E+00  1.0000  1.1188E-02
       4.5000       0.0500    -103.0000  8.05919E+02  170.000  0.00000E+00  1.0000  1.1188E-02
       7.5000       0.0500    -103.0000  8.05919E+02  170.000  0.00000E+00  1.0000  1.1188E-02
       1.5000       0.0500    -105.0000  8.06104E+02  170.000  0.00000E+00  1.0000  1.1186E-02
       4.5000       0.0500    -105.0000  8.06104E+02  170.000  0.00000E+00  1.0000  1.1186E-02
       7.5000       0.0500    -105.0000  8.06104E+02  170.000  0.00000E+00  1.0000  1.1186E-02
       1.5000       0.0500    -107.0000  8.06288E+02  170.000  0.00000E+00  1.0000  1.1184E-02
       4.5000       0.0500    -107.0000  8.06288E+02  170.000  0.00000E+00  1.0000  1.1184E-02
       7.5000       0.0500    -107.0000  8.06288E+02  170.000  0.00000E+00  1.0000  1.1184E-02
Zone T= "3.15400000E+07 sec" I=      12 J=       1 K=       1 F=Point
       1.5000       0.0500    -101.0000  8.05735E+02  170.000  0.00000E+00  1.0000  1.1190E-02
       4.5000       0.0500    -101.0000  8.05735E+02  170.000  0.00000E+00  1.0000  1.1190E-02
       7.5000       0.0500    -101.0000  8.05735E+02  170.000  0.00000E+00  1.0000  1.1190E-02
       1.5000       0.0500    -103.0000  8.05919E+02  170.000  0.00000E+00  1.0000  1.1188E-02
       4.5000       0.0500    -103.0000  8.05919E+02  170.000  0.00000E+00  1.0000  1.1188E-02
       7.5000       0.0500    -103.0000  8.05919E+02  170.000  0.00000E+00  1.0000  1.1188E-02
       1.5000       0.0500    -105.0000  8.06104E+02  170.000  0.00000E+00  1.0000  1.1186E-02
       4.5000       0.0500    -105.0000  8.06104E+02  170.000  0.00000E+00  1.0000  1.1186E-02
       7.5000       0.0500    -105.0000  8.06104E+02  170.000  0.00000E+00  1.0000  1.1186E-02
       1.5000       0.0500    -107.0000  8.06288E+02  170.000  0.00000E+00  1.0000  1.1184E-02
       4.5000       0.0500    -107.0000  8.06288E+02  170.000  0.00000E+00  1.0000  1.1184E-02
       7.5000       0.0500    -107.0000  8.06288E+02  170.000  0.00000E+00  1.0000  1.1184E-02
